<?xml version="1.0" encoding="ISO-8859-1"?>
<modeling>
 <generator>
  <i name="program" type="string">vasp </i>
  <i name="version" type="string">5.4.1  </i>
  <i name="subversion" type="string">05Feb16 (build Jul 05 2020 17:13:04) complex                          parallel </i>
  <i name="platform" type="string">IFC91_ompi </i>
  <i name="date" type="string">2024 08 08 </i>
  <i name="time" type="string">06:24:25 </i>
 </generator>
 <incar>
  <i type="int" name="ISTART">     0</i>
  <i type="string" name="PREC">normal</i>
  <i type="string" name="ALGO"> Normal</i>
  <i type="int" name="ISPIN">     1</i>
  <i type="int" name="ICHARG">     2</i>
  <i type="int" name="IBRION">     1</i>
  <i type="int" name="NSW">   100</i>
  <i type="int" name="ISIF">     3</i>
  <i type="int" name="ISYM">     0</i>
  <i name="SYMPREC">      0.00000001</i>
  <i name="POTIM">      0.50000000</i>
  <i type="logical" name="LREAL"> F  </i>
  <i type="logical" name="LPLANE"> F  </i>
  <i type="int" name="ISMEAR">     0</i>
  <i type="logical" name="LWAVE"> F  </i>
  <i type="logical" name="LCHARG"> F  </i>
  <v type="int" name="KPOINT_BSE">    -1     0     0     0</v>
 </incar>
 <kpoints>
  <generation param="Gamma">
   <v type="int" name="divisions">       8        8        1 </v>
   <v name="usershift">      0.00000000       0.00000000       0.00000000 </v>
   <v name="genvec1">      0.12500000       0.00000000       0.00000000 </v>
   <v name="genvec2">     -0.00000000       0.12500000       0.00000000 </v>
   <v name="genvec3">      0.00000000       0.00000000       1.00000000 </v>
   <v name="shift">      0.00000000       0.00000000       0.00000000 </v>
  </generation>
  <varray name="kpointlist" >
   <v>       0.00000000       0.00000000       0.00000000 </v>
   <v>       0.12500000       0.00000000       0.00000000 </v>
   <v>       0.25000000       0.00000000       0.00000000 </v>
   <v>       0.37500000       0.00000000       0.00000000 </v>
   <v>       0.50000000       0.00000000       0.00000000 </v>
   <v>       0.00000000       0.12500000       0.00000000 </v>
   <v>       0.12500000       0.12500000       0.00000000 </v>
   <v>       0.25000000       0.12500000       0.00000000 </v>
   <v>       0.37500000       0.12500000       0.00000000 </v>
   <v>       0.50000000       0.12500000       0.00000000 </v>
   <v>      -0.37500000       0.12500000       0.00000000 </v>
   <v>      -0.25000000       0.12500000       0.00000000 </v>
   <v>      -0.12500000       0.12500000       0.00000000 </v>
   <v>       0.00000000       0.25000000       0.00000000 </v>
   <v>       0.12500000       0.25000000       0.00000000 </v>
   <v>       0.25000000       0.25000000       0.00000000 </v>
   <v>       0.37500000       0.25000000       0.00000000 </v>
   <v>       0.50000000       0.25000000       0.00000000 </v>
   <v>      -0.37500000       0.25000000       0.00000000 </v>
   <v>      -0.25000000       0.25000000       0.00000000 </v>
   <v>      -0.12500000       0.25000000       0.00000000 </v>
   <v>      -0.00000000       0.37500000       0.00000000 </v>
   <v>       0.12500000       0.37500000       0.00000000 </v>
   <v>       0.25000000       0.37500000       0.00000000 </v>
   <v>       0.37500000       0.37500000       0.00000000 </v>
   <v>       0.50000000       0.37500000       0.00000000 </v>
   <v>      -0.37500000       0.37500000       0.00000000 </v>
   <v>      -0.25000000       0.37500000       0.00000000 </v>
   <v>      -0.12500000       0.37500000       0.00000000 </v>
   <v>       0.00000000       0.50000000       0.00000000 </v>
   <v>       0.12500000       0.50000000       0.00000000 </v>
   <v>       0.25000000       0.50000000       0.00000000 </v>
   <v>       0.37500000       0.50000000       0.00000000 </v>
   <v>       0.50000000       0.50000000       0.00000000 </v>
  </varray>
  <varray name="weights" >
   <v>       0.01562500 </v>
   <v>       0.03125000 </v>
   <v>       0.03125000 </v>
   <v>       0.03125000 </v>
   <v>       0.01562500 </v>
   <v>       0.03125000 </v>
   <v>       0.03125000 </v>
   <v>       0.03125000 </v>
   <v>       0.03125000 </v>
   <v>       0.03125000 </v>
   <v>       0.03125000 </v>
   <v>       0.03125000 </v>
   <v>       0.03125000 </v>
   <v>       0.03125000 </v>
   <v>       0.03125000 </v>
   <v>       0.03125000 </v>
   <v>       0.03125000 </v>
   <v>       0.03125000 </v>
   <v>       0.03125000 </v>
   <v>       0.03125000 </v>
   <v>       0.03125000 </v>
   <v>       0.03125000 </v>
   <v>       0.03125000 </v>
   <v>       0.03125000 </v>
   <v>       0.03125000 </v>
   <v>       0.03125000 </v>
   <v>       0.03125000 </v>
   <v>       0.03125000 </v>
   <v>       0.03125000 </v>
   <v>       0.01562500 </v>
   <v>       0.03125000 </v>
   <v>       0.03125000 </v>
   <v>       0.03125000 </v>
   <v>       0.01562500 </v>
  </varray>
 </kpoints>
 <parameters>
  <separator name="general" >
   <i type="string" name="SYSTEM">unknown system</i>
   <i type="logical" name="LCOMPAT"> F  </i>
  </separator>
  <separator name="electronic" >
   <i type="string" name="PREC">normal</i>
   <i name="ENMAX">    280.00000000</i>
   <i name="ENAUG">    373.43800000</i>
   <i name="EDIFF">      0.00010000</i>
   <i type="int" name="IALGO">    38</i>
   <i type="int" name="IWAVPR">    11</i>
   <i type="int" name="NBANDS">   120</i>
   <i name="NELECT">    159.00000000</i>
   <i type="int" name="TURBO">     0</i>
   <i type="int" name="IRESTART">     0</i>
   <i type="int" name="NREBOOT">     0</i>
   <i type="int" name="NMIN">     0</i>
   <i name="EREF">      0.00000000</i>
   <separator name="electronic smearing" >
    <i type="int" name="ISMEAR">     0</i>
    <i name="SIGMA">      0.20000000</i>
    <i name="KSPACING">      0.50000000</i>
    <i type="logical" name="KGAMMA"> T  </i>
   </separator>
   <separator name="electronic projectors" >
    <i type="logical" name="LREAL"> F  </i>
    <v name="ROPT">      0.00000000      0.00000000      0.00000000      0.00000000</v>
    <i type="int" name="LMAXPAW">  -100</i>
    <i type="int" name="LMAXMIX">     2</i>
    <i type="logical" name="NLSPLINE"> F  </i>
   </separator>
   <separator name="electronic startup" >
    <i type="int" name="ISTART">     0</i>
    <i type="int" name="ICHARG">     2</i>
    <i type="int" name="INIWAV">     1</i>
   </separator>
   <separator name="electronic spin" >
    <i type="int" name="ISPIN">     1</i>
    <i type="logical" name="LNONCOLLINEAR"> F  </i>
    <v name="MAGMOM">      1.00000000      1.00000000      1.00000000      1.00000000      1.00000000      1.00000000      1.00000000      1.00000000      1.00000000      1.00000000      1.00000000      1.00000000      1.00000000      1.00000000      1.00000000      1.00000000      1.00000000      1.00000000      1.00000000      1.00000000
      1.00000000      1.00000000      1.00000000      1.00000000      1.00000000      1.00000000      1.00000000</v>
    <i name="NUPDOWN">     -1.00000000</i>
    <i type="logical" name="LSORBIT"> F  </i>
    <v name="SAXIS">      0.00000000      0.00000000      1.00000000</v>
    <i type="logical" name="LSPIRAL"> F  </i>
    <v name="QSPIRAL">      0.00000000      0.00000000      0.00000000</v>
    <i type="logical" name="LZEROZ"> F  </i>
   </separator>
   <separator name="electronic exchange-correlation" >
    <i type="logical" name="LASPH"> F  </i>
    <i type="logical" name="LMETAGGA"> F  </i>
   </separator>
   <separator name="electronic convergence" >
    <i type="int" name="NELM">    60</i>
    <i type="int" name="NELMDL">    -5</i>
    <i type="int" name="NELMIN">     2</i>
    <i name="ENINI">    280.00000000</i>
    <separator name="electronic convergence detail" >
     <i type="logical" name="LDIAG"> T  </i>
     <i type="logical" name="LSUBROT"> F  </i>
     <i name="WEIMIN">      0.00100000</i>
     <i name="EBREAK">      0.00000021</i>
     <i name="DEPER">      0.30000000</i>
     <i type="int" name="NRMM">     4</i>
     <i name="TIME">      0.40000000</i>
    </separator>
   </separator>
   <separator name="electronic mixer" >
    <i name="AMIX">      0.40000000</i>
    <i name="BMIX">      1.00000000</i>
    <i name="AMIN">      0.10000000</i>
    <i name="AMIX_MAG">      1.60000000</i>
    <i name="BMIX_MAG">      1.00000000</i>
    <separator name="electronic mixer details" >
     <i type="int" name="IMIX">     4</i>
     <i type="logical" name="MIXFIRST"> F  </i>
     <i type="int" name="MAXMIX">   -45</i>
     <i name="WC">    100.00000000</i>
     <i type="int" name="INIMIX">     1</i>
     <i type="int" name="MIXPRE">     1</i>
     <i type="int" name="MREMOVE">     5</i>
    </separator>
   </separator>
   <separator name="electronic dipolcorrection" >
    <i type="logical" name="LDIPOL"> F  </i>
    <i type="logical" name="LMONO"> F  </i>
    <i type="int" name="IDIPOL">     0</i>
    <i name="EPSILON">      1.00000000</i>
    <v name="DIPOL">   -100.00000000   -100.00000000   -100.00000000</v>
    <i name="EFIELD">      0.00000000</i>
   </separator>
  </separator>
  <separator name="grids" >
   <i type="int" name="NGX">    42</i>
   <i type="int" name="NGY">    42</i>
   <i type="int" name="NGZ">   126</i>
   <i type="int" name="NGXF">    84</i>
   <i type="int" name="NGYF">    84</i>
   <i type="int" name="NGZF">   252</i>
   <i type="logical" name="ADDGRID"> F  </i>
  </separator>
  <separator name="ionic" >
   <i type="int" name="NSW">   100</i>
   <i type="int" name="IBRION">     1</i>
   <i type="int" name="ISIF">     3</i>
   <i name="PSTRESS">      0.00000000</i>
   <i name="EDIFFG">      0.00100000</i>
   <i type="int" name="NFREE">     0</i>
   <i name="POTIM">      0.50000000</i>
   <i name="SMASS">     -3.00000000</i>
   <i name="SCALEE">      1.00000000</i>
  </separator>
  <separator name="ionic md" >
   <i name="TEBEG">      0.00010000</i>
   <i name="TEEND">      0.00010000</i>
   <i type="int" name="NBLOCK">     1</i>
   <i type="int" name="KBLOCK">   100</i>
   <i type="int" name="NPACO">   256</i>
   <i name="APACO">     16.00000000</i>
  </separator>
  <separator name="symmetry" >
   <i type="int" name="ISYM">     0</i>
   <i name="SYMPREC">      0.00000001</i>
  </separator>
  <separator name="dos" >
   <i type="logical" name="LORBIT"> F  </i>
   <v name="RWIGS">     -1.00000000     -1.00000000     -1.00000000     -1.00000000</v>
   <i type="int" name="NEDOS">   301</i>
   <i name="EMIN">     10.00000000</i>
   <i name="EMAX">    -10.00000000</i>
   <i name="EFERMI">      0.00000000</i>
  </separator>
  <separator name="writing" >
   <i type="int" name="NWRITE">     2</i>
   <i type="logical" name="LWAVE"> F  </i>
   <i type="logical" name="LCHARG"> F  </i>
   <i type="logical" name="LPARD"> F  </i>
   <i type="logical" name="LVTOT"> F  </i>
   <i type="logical" name="LVHAR"> F  </i>
   <i type="logical" name="LELF"> F  </i>
   <i type="logical" name="LOPTICS"> F  </i>
   <v name="STM">      0.00000000      0.00000000      0.00000000      0.00000000      0.00000000      0.00000000      0.00000000</v>
  </separator>
  <separator name="performance" >
   <i type="int" name="NPAR">    40</i>
   <i type="int" name="NSIM">     4</i>
   <i type="int" name="NBLK">    -1</i>
   <i type="logical" name="LPLANE"> F  </i>
   <i type="logical" name="LSCALAPACK"> T  </i>
   <i type="logical" name="LSCAAWARE"> F  </i>
   <i type="logical" name="LSCALU"> F  </i>
   <i type="logical" name="LASYNC"> F  </i>
   <i type="logical" name="LORBITALREAL"> F  </i>
  </separator>
  <separator name="miscellaneous" >
   <i type="int" name="IDIOT">     3</i>
   <i type="logical" name="LMUSIC"> F  </i>
   <v name="POMASS">     50.94100000     95.94000000    183.85000000     32.06600000</v>
   <v name="DARWINR">      0.00000000      0.00000000      0.00000000      0.00000000</v>
   <v name="DARWINV">      1.00000000      1.00000000      1.00000000      1.00000000</v>
   <i type="logical" name="LCORR"> T  </i>
  </separator>
  <i type="logical" name="GGA_COMPAT"> T  </i>
  <i type="logical" name="LBERRY"> F  </i>
  <i type="int" name="ICORELEVEL">     0</i>
  <i type="logical" name="LDAU"> F  </i>
  <i type="int" name="I_CONSTRAINED_M">     0</i>
  <separator name="electronic exchange-correlation" >
   <i type="string" name="GGA">--</i>
   <i type="int" name="VOSKOWN">     0</i>
   <i type="logical" name="LHFCALC"> F  </i>
   <i type="string" name="PRECFOCK"></i>
   <i type="logical" name="LSYMGRAD"> F  </i>
   <i type="logical" name="LHFONE"> F  </i>
   <i type="logical" name="LRHFCALC"> F  </i>
   <i type="logical" name="LTHOMAS"> F  </i>
   <i type="logical" name="LMODELHF"> F  </i>
   <i name="ENCUT4O">     -1.00000000</i>
   <i type="int" name="EXXOEP">     0</i>
   <i type="int" name="FOURORBIT">     0</i>
   <i name="AEXX">      0.00000000</i>
   <i name="HFALPHA">      0.00000000</i>
   <i name="MCALPHA">      0.00000000</i>
   <i name="ALDAX">      1.00000000</i>
   <i name="AGGAX">      1.00000000</i>
   <i name="ALDAC">      1.00000000</i>
   <i name="AGGAC">      1.00000000</i>
   <i type="int" name="NKREDX">     1</i>
   <i type="int" name="NKREDY">     1</i>
   <i type="int" name="NKREDZ">     1</i>
   <i type="logical" name="SHIFTRED"> F  </i>
   <i type="logical" name="ODDONLY"> F  </i>
   <i type="logical" name="EVENONLY"> F  </i>
   <i type="int" name="LMAXFOCK">     0</i>
   <i type="int" name="NMAXFOCKAE">     0</i>
   <i type="logical" name="LFOCKAEDFT"> F  </i>
   <i name="HFSCREEN">      0.00000000</i>
   <i name="HFSCREENC">      0.00000000</i>
   <i type="int" name="NBANDSGWLOW">     0</i>
  </separator>
  <separator name="vdW DFT" >
   <i type="logical" name="LUSE_VDW"> F  </i>
   <i name="Zab_VDW">     -0.84910000</i>
   <i name="PARAM1">      0.12340000</i>
   <i name="PARAM2">      1.00000000</i>
   <i name="PARAM3">      0.00000000</i>
  </separator>
  <separator name="model GW" >
   <i type="int" name="MODEL_GW">     0</i>
   <i name="MODEL_EPS0">     58.26239943</i>
   <i name="MODEL_ALPHA">      1.00000000</i>
  </separator>
  <separator name="linear response parameters" >
   <i type="logical" name="LEPSILON"> F  </i>
   <i type="logical" name="LRPA"> F  </i>
   <i type="logical" name="LNABLA"> F  </i>
   <i type="logical" name="LVEL"> F  </i>
   <i type="int" name="KINTER">     0</i>
   <i name="CSHIFT">      0.10000000</i>
   <i name="OMEGAMAX">     -1.00000000</i>
   <i name="DEG_THRESHOLD">      0.00200000</i>
  </separator>
  <separator name="orbital magnetization" >
   <i type="logical" name="NUCIND"> F  </i>
   <v name="MAGPOS">      0.00000000      0.00000000      0.00000000</v>
   <i type="logical" name="LNICSALL"> T  </i>
   <i type="logical" name="ORBITALMAG"> F  </i>
   <i type="logical" name="LMAGBLOCH"> F  </i>
   <i type="logical" name="LCHIMAG"> F  </i>
   <i type="logical" name="LGAUGE"> T  </i>
   <i type="int" name="MAGATOM">     0</i>
   <v name="MAGDIPOL">      0.00000000      0.00000000      0.00000000</v>
   <v name="AVECCONST">      0.00000000      0.00000000      0.00000000</v>
  </separator>
  <separator name="response functions" >
   <i type="logical" name="LADDER"> F  </i>
   <i type="logical" name="LFXC"> F  </i>
   <i type="logical" name="LHARTREE"> T  </i>
   <i type="int" name="IBSE">     0</i>
   <v type="int" name="KPOINT">    -1     0     0     0</v>
   <i type="logical" name="LTCTE"> F  </i>
   <i type="logical" name="LTETE"> F  </i>
   <i type="logical" name="LTRIPLET"> F  </i>
   <i type="logical" name="LFXCEPS"> F  </i>
   <i type="logical" name="LFXHEG"> F  </i>
   <i type="int" name="NATURALO">     0</i>
   <i type="logical" name="L2ORDER"> F  </i>
   <i type="logical" name="LUSEW"> F  </i>
   <i name="ENCUTGW">     -2.00000000</i>
   <i name="ENCUTGWSOFT">     -2.00000000</i>
   <i name="ENCUTLF">     -1.00000000</i>
   <i type="int" name="LMAXMP2">    -1</i>
   <i name="SCISSOR">      0.00000000</i>
   <i type="int" name="NOMEGA">     0</i>
   <i type="int" name="NOMEGAR">     0</i>
   <i type="int" name="NBANDSGW">    -1</i>
   <i type="int" name="NBANDSO">    -1</i>
   <i type="int" name="NBANDSV">    -1</i>
   <i type="int" name="NELM">     1</i>
   <i type="int" name="NELMHF">     1</i>
   <i type="int" name="DIM">     3</i>
   <i type="int" name="ANTIRES">     0</i>
   <i name="OMEGAMAX">    -30.00000000</i>
   <i name="OMEGAMIN">    -30.00000000</i>
   <i name="OMEGATL">   -200.00000000</i>
   <i type="int" name="OMEGAGRID">     0</i>
   <i name="CSHIFT">     -0.10000000</i>
   <i type="logical" name="SELFENERGY"> F  </i>
   <i type="logical" name="LSPECTRAL"> F  </i>
   <i type="logical" name="LSPECTRALGW"> F  </i>
   <i type="logical" name="LSINGLES"> F  </i>
   <i type="logical" name="LFERMIGW"> F  </i>
   <i type="logical" name="ODDONLYGW"> F  </i>
   <i type="logical" name="EVENONLYGW"> F  </i>
   <i type="int" name="NKREDLFX">     1</i>
   <i type="int" name="NKREDLFY">     1</i>
   <i type="int" name="NKREDLFZ">     1</i>
   <i type="int" name="MAXMEM">  1800</i>
   <i type="int" name="TELESCOPE">     0</i>
   <i type="int" name="TAUPAR">     1</i>
   <i type="int" name="OMEGAPAR">    -1</i>
   <i name="LAMBDA">      1.00000000</i>
  </separator>
  <separator name="External order field" >
   <i name="OFIELD_KAPPA">      0.00000000</i>
   <v name="OFIELD_K">      0.00000000      0.00000000      0.00000000</v>
   <i name="OFIELD_Q6_NEAR">      0.00000000</i>
   <i name="OFIELD_Q6_FAR">      0.00000000</i>
   <i name="OFIELD_A">      0.00000000</i>
  </separator>
 </parameters>
 <atominfo>
  <atoms>      27 </atoms>
  <types>       4 </types>
  <array name="atoms" >
   <dimension dim="1">ion</dimension>
   <field type="string">element</field>
   <field type="int">atomtype</field>
   <set>
    <rc><c>V </c><c>   1</c></rc>
    <rc><c>V </c><c>   1</c></rc>
    <rc><c>V </c><c>   1</c></rc>
    <rc><c>Mo</c><c>   2</c></rc>
    <rc><c>Mo</c><c>   2</c></rc>
    <rc><c>Mo</c><c>   2</c></rc>
    <rc><c>W </c><c>   3</c></rc>
    <rc><c>W </c><c>   3</c></rc>
    <rc><c>W </c><c>   3</c></rc>
    <rc><c>S </c><c>   4</c></rc>
    <rc><c>S </c><c>   4</c></rc>
    <rc><c>S </c><c>   4</c></rc>
    <rc><c>S </c><c>   4</c></rc>
    <rc><c>S </c><c>   4</c></rc>
    <rc><c>S </c><c>   4</c></rc>
    <rc><c>S </c><c>   4</c></rc>
    <rc><c>S </c><c>   4</c></rc>
    <rc><c>S </c><c>   4</c></rc>
    <rc><c>S </c><c>   4</c></rc>
    <rc><c>S </c><c>   4</c></rc>
    <rc><c>S </c><c>   4</c></rc>
    <rc><c>S </c><c>   4</c></rc>
    <rc><c>S </c><c>   4</c></rc>
    <rc><c>S </c><c>   4</c></rc>
    <rc><c>S </c><c>   4</c></rc>
    <rc><c>S </c><c>   4</c></rc>
    <rc><c>S </c><c>   4</c></rc>
   </set>
  </array>
  <array name="atomtypes" >
   <dimension dim="1">type</dimension>
   <field type="int">atomspertype</field>
   <field type="string">element</field>
   <field>mass</field>
   <field>valence</field>
   <field type="string">pseudopotential</field>
   <set>
    <rc><c>   3</c><c>V </c><c>     50.94100000</c><c>      5.00000000</c><c> PAW_PBE V 08Apr2002                    </c></rc>
    <rc><c>   3</c><c>Mo</c><c>     95.94000000</c><c>      6.00000000</c><c> PAW_PBE Mo 08Apr2002                   </c></rc>
    <rc><c>   3</c><c>W </c><c>    183.85000000</c><c>      6.00000000</c><c> PAW_PBE W 08Apr2002                    </c></rc>
    <rc><c>  18</c><c>S </c><c>     32.06600000</c><c>      6.00000000</c><c>  PAW_PBE S 17Jan2003                   </c></rc>
   </set>
  </array>
 </atominfo>
 <structure name="initialpos" >
  <crystal>
   <varray name="basis" >
    <v>       8.66999996       5.03999989       0.00000000 </v>
    <v>      -8.66999982       5.04000013       0.00000000 </v>
    <v>       0.00000000       0.00000000      30.00000000 </v>
   </varray>
   <i name="volume">   2621.80797419 </i>
   <varray name="rec_basis" >
    <v>       0.05767013       0.09920635       0.00000000 </v>
    <v>      -0.05767013       0.09920635       0.00000000 </v>
    <v>       0.00000000       0.00000000       0.03333333 </v>
   </varray>
  </crystal>
  <varray name="positions" >
   <v>       0.33333334       0.66666669       0.00000000 </v>
   <v>       0.66666669       0.33333334       0.00000000 </v>
   <v>       0.00000000       0.00000000       0.00000000 </v>
   <v>       0.33333334       0.00000000       0.00000000 </v>
   <v>       0.00000000       0.66666669       0.00000000 </v>
   <v>       1.00000000       0.33333334       0.00000000 </v>
   <v>       0.33333334       0.33333334       0.00000000 </v>
   <v>       0.66666669       0.00000000       0.00000000 </v>
   <v>       0.66666669       0.66666669       0.00000000 </v>
   <v>       0.11068511       0.22244981       0.95539999 </v>
   <v>       0.22244981       0.11068511       0.04460000 </v>
   <v>       0.11068511       0.55578315       0.95539999 </v>
   <v>       0.22244981       0.44401845       0.04460000 </v>
   <v>       0.11068511       0.88911647       0.95539999 </v>
   <v>       0.22244981       0.77735180       0.04460000 </v>
   <v>       0.44401845       0.22244981       0.95539999 </v>
   <v>       0.55578315       0.11068511       0.04460000 </v>
   <v>       0.44401845       0.55578315       0.95539999 </v>
   <v>       0.55578315       0.44401845       0.04460000 </v>
   <v>       0.44401845       0.88911647       0.95539999 </v>
   <v>       0.55578315       0.77735180       0.04460000 </v>
   <v>       0.77735180       0.22244981       0.95539999 </v>
   <v>       0.88911647       0.11068511       0.04460000 </v>
   <v>       0.77735180       0.55578315       0.95539999 </v>
   <v>       0.88911647       0.44401845       0.04460000 </v>
   <v>       0.77735180       0.88911647       0.95539999 </v>
   <v>       0.88911647       0.77735180       0.04460000 </v>
  </varray>
 </structure>
 <calculation>
  <scstep>
   <time name="dav">   22.07   22.12</time>
   <time name="total">   22.11   22.17</time>
   <energy>
    <i name="alphaZ">     81.65567618 </i>
    <i name="ewald">  41888.36874788 </i>
    <i name="hartreedc"> -47720.98535202 </i>
    <i name="XCdc">   -242.93567426 </i>
    <i name="pawpsdc">   3467.42045192 </i>
    <i name="pawaedc">  -2871.19716117 </i>
    <i name="eentropy">     -0.51488271 </i>
    <i name="bandstr">   -236.43775024 </i>
    <i name="atom">   6761.44252427 </i>
    <i name="e_fr_energy">   1126.81657986 </i>
    <i name="e_wo_entrp">   1127.33146257 </i>
    <i name="e_0_energy">   1127.07402121 </i>
   </energy>
  </scstep>
  <scstep>
   <time name="dav">   28.34   28.41</time>
   <time name="total">   28.34   28.42</time>
   <energy>
    <i name="e_fr_energy">     -3.97493324 </i>
    <i name="e_wo_entrp">     -3.79660303 </i>
    <i name="e_0_energy">     -3.88576813 </i>
   </energy>
  </scstep>
  <scstep>
   <time name="dav">   27.69   27.76</time>
   <time name="total">   27.69   27.76</time>
   <energy>
    <i name="e_fr_energy">   -199.84977708 </i>
    <i name="e_wo_entrp">   -199.60409710 </i>
    <i name="e_0_energy">   -199.72693709 </i>
   </energy>
  </scstep>
  <scstep>
   <time name="dav">   30.02   30.10</time>
   <time name="total">   30.03   30.10</time>
   <energy>
    <i name="e_fr_energy">   -208.98928130 </i>
    <i name="e_wo_entrp">   -208.72574326 </i>
    <i name="e_0_energy">   -208.85751228 </i>
   </energy>
  </scstep>
  <scstep>
   <time name="dav">   28.81   28.88</time>
   <time name="total">   29.28   29.35</time>
   <energy>
    <i name="e_fr_energy">   -209.35004205 </i>
    <i name="e_wo_entrp">   -209.09023717 </i>
    <i name="e_0_energy">   -209.22013961 </i>
   </energy>
  </scstep>
  <scstep>
   <time name="dav">   31.81   31.89</time>
   <time name="total">   32.31   32.40</time>
   <energy>
    <i name="e_fr_energy">   -236.56177261 </i>
    <i name="e_wo_entrp">   -236.29082774 </i>
    <i name="e_0_energy">   -236.42630017 </i>
   </energy>
  </scstep>
  <scstep>
   <time name="dav">   30.58   30.66</time>
   <time name="total">   31.09   31.17</time>
   <energy>
    <i name="e_fr_energy">   -196.08518863 </i>
    <i name="e_wo_entrp">   -195.82889190 </i>
    <i name="e_0_energy">   -195.95704026 </i>
   </energy>
  </scstep>
  <scstep>
   <time name="dav">   30.39   30.46</time>
   <time name="total">   30.90   30.98</time>
   <energy>
    <i name="e_fr_energy">   -189.21707640 </i>
    <i name="e_wo_entrp">   -188.93085549 </i>
    <i name="e_0_energy">   -189.07396594 </i>
   </energy>
  </scstep>
  <scstep>
   <time name="dav">   32.84   32.92</time>
   <time name="total">   33.36   33.44</time>
   <energy>
    <i name="e_fr_energy">   -188.01313683 </i>
    <i name="e_wo_entrp">   -187.70309988 </i>
    <i name="e_0_energy">   -187.85811836 </i>
   </energy>
  </scstep>
  <scstep>
   <time name="dav">   31.86   31.94</time>
   <time name="total">   32.40   32.48</time>
   <energy>
    <i name="e_fr_energy">   -187.02181595 </i>
    <i name="e_wo_entrp">   -186.67005813 </i>
    <i name="e_0_energy">   -186.84593704 </i>
   </energy>
  </scstep>
  <scstep>
   <time name="dav">   32.48   32.56</time>
   <time name="total">   33.01   33.10</time>
   <energy>
    <i name="e_fr_energy">   -187.21896035 </i>
    <i name="e_wo_entrp">   -186.88993496 </i>
    <i name="e_0_energy">   -187.05444766 </i>
   </energy>
  </scstep>
  <scstep>
   <time name="dav">   30.38   30.45</time>
   <time name="total">   30.91   31.00</time>
   <energy>
    <i name="e_fr_energy">   -187.06003891 </i>
    <i name="e_wo_entrp">   -186.72914336 </i>
    <i name="e_0_energy">   -186.89459113 </i>
   </energy>
  </scstep>
  <scstep>
   <time name="dav">   30.59   30.66</time>
   <time name="total">   31.12   31.21</time>
   <energy>
    <i name="e_fr_energy">   -186.94124290 </i>
    <i name="e_wo_entrp">   -186.59607055 </i>
    <i name="e_0_energy">   -186.76865673 </i>
   </energy>
  </scstep>
  <scstep>
   <time name="dav">   32.06   32.14</time>
   <time name="total">   32.60   32.68</time>
   <energy>
    <i name="e_fr_energy">   -186.93457049 </i>
    <i name="e_wo_entrp">   -186.58816760 </i>
    <i name="e_0_energy">   -186.76136905 </i>
   </energy>
  </scstep>
  <scstep>
   <time name="dav">   32.66   32.74</time>
   <time name="total">   33.20   33.29</time>
   <energy>
    <i name="e_fr_energy">   -186.92813015 </i>
    <i name="e_wo_entrp">   -186.58210795 </i>
    <i name="e_0_energy">   -186.75511905 </i>
   </energy>
  </scstep>
  <scstep>
   <time name="dav">   32.43   32.51</time>
   <time name="total">   32.97   33.05</time>
   <energy>
    <i name="e_fr_energy">   -186.92391537 </i>
    <i name="e_wo_entrp">   -186.57929215 </i>
    <i name="e_0_energy">   -186.75160376 </i>
   </energy>
  </scstep>
  <scstep>
   <time name="dav">   29.89   29.96</time>
   <time name="total">   30.42   30.50</time>
   <energy>
    <i name="e_fr_energy">   -186.92366902 </i>
    <i name="e_wo_entrp">   -186.57942370 </i>
    <i name="e_0_energy">   -186.75154636 </i>
   </energy>
  </scstep>
  <scstep>
   <time name="dav">   30.50   30.57</time>
   <time name="total">   31.03   31.12</time>
   <energy>
    <i name="e_fr_energy">   -186.92314362 </i>
    <i name="e_wo_entrp">   -186.57824379 </i>
    <i name="e_0_energy">   -186.75069370 </i>
   </energy>
  </scstep>
  <scstep>
   <time name="dav">   27.19   27.25</time>
   <time name="total">   27.72   27.80</time>
   <energy>
    <i name="e_fr_energy">   -186.92355063 </i>
    <i name="e_wo_entrp">   -186.57892546 </i>
    <i name="e_0_energy">   -186.75123804 </i>
   </energy>
  </scstep>
  <scstep>
   <time name="dav">   25.22   25.28</time>
   <time name="total">   25.76   25.83</time>
   <energy>
    <i name="e_fr_energy">   -186.92409599 </i>
    <i name="e_wo_entrp">   -186.57980220 </i>
    <i name="e_0_energy">   -186.75194910 </i>
   </energy>
  </scstep>
  <scstep>
   <time name="dav">   23.88   23.94</time>
   <time name="total">   24.42   24.49</time>
   <energy>
    <i name="e_fr_energy">   -186.92525057 </i>
    <i name="e_wo_entrp">   -186.58079081 </i>
    <i name="e_0_energy">   -186.75302069 </i>
   </energy>
  </scstep>
  <scstep>
   <time name="dav">   20.33   20.38</time>
   <time name="total">   20.87   20.92</time>
   <energy>
    <i name="e_fr_energy">   -186.92617904 </i>
    <i name="e_wo_entrp">   -186.58169321 </i>
    <i name="e_0_energy">   -186.75393612 </i>
   </energy>
  </scstep>
  <scstep>
   <time name="dav">   19.51   19.55</time>
   <time name="total">   20.04   20.10</time>
   <energy>
    <i name="e_fr_energy">   -186.92684809 </i>
    <i name="e_wo_entrp">   -186.58238312 </i>
    <i name="e_0_energy">   -186.75461561 </i>
   </energy>
  </scstep>
  <scstep>
   <time name="dav">   20.05   20.10</time>
   <time name="total">   20.59   20.64</time>
   <energy>
    <i name="e_fr_energy">   -186.92752777 </i>
    <i name="e_wo_entrp">   -186.58310279 </i>
    <i name="e_0_energy">   -186.75531528 </i>
   </energy>
  </scstep>
  <scstep>
   <time name="dav">   18.13   18.17</time>
   <time name="total">   18.66   18.72</time>
   <energy>
    <i name="e_fr_energy">   -186.92787511 </i>
    <i name="e_wo_entrp">   -186.58342341 </i>
    <i name="e_0_energy">   -186.75564926 </i>
   </energy>
  </scstep>
  <scstep>
   <time name="dav">   19.10   19.15</time>
   <time name="total">   19.64   19.70</time>
   <energy>
    <i name="e_fr_energy">   -186.92811837 </i>
    <i name="e_wo_entrp">   -186.58366627 </i>
    <i name="e_0_energy">   -186.75589232 </i>
   </energy>
  </scstep>
  <scstep>
   <time name="dav">   20.05   20.10</time>
   <time name="total">   20.08   20.14</time>
   <energy>
    <i name="alphaZ">     81.65567618 </i>
    <i name="ewald">  41888.36874788 </i>
    <i name="hartreedc"> -47831.62701093 </i>
    <i name="XCdc">   -231.60175460 </i>
    <i name="pawpsdc">   4192.25278306 </i>
    <i name="pawaedc">  -3610.29161020 </i>
    <i name="eentropy">     -0.34445025 </i>
    <i name="bandstr">  -1436.78309976 </i>
    <i name="atom">   6761.44252427 </i>
    <i name="e_fr_energy">   -186.92819434 </i>
    <i name="e_wo_entrp">   -186.58374409 </i>
    <i name="e_0_energy">   -186.75596922 </i>
   </energy>
  </scstep>
  <structure>
   <crystal>
    <varray name="basis" >
     <v>       8.66999996       5.03999989       0.00000000 </v>
     <v>      -8.66999982       5.04000013       0.00000000 </v>
     <v>       0.00000000       0.00000000      30.00000000 </v>
    </varray>
    <i name="volume">   2621.80797419 </i>
    <varray name="rec_basis" >
     <v>       0.05767013       0.09920635       0.00000000 </v>
     <v>      -0.05767013       0.09920635       0.00000000 </v>
     <v>       0.00000000       0.00000000       0.03333333 </v>
    </varray>
   </crystal>
   <varray name="positions" >
    <v>       0.33333334       0.66666669       0.00000000 </v>
    <v>       0.66666669       0.33333334       0.00000000 </v>
    <v>       0.00000000       0.00000000       0.00000000 </v>
    <v>       0.33333334       0.00000000       0.00000000 </v>
    <v>       0.00000000       0.66666669       0.00000000 </v>
    <v>       1.00000000       0.33333334       0.00000000 </v>
    <v>       0.33333334       0.33333334       0.00000000 </v>
    <v>       0.66666669       0.00000000       0.00000000 </v>
    <v>       0.66666669       0.66666669       0.00000000 </v>
    <v>       0.11068511       0.22244981       0.95539999 </v>
    <v>       0.22244981       0.11068511       0.04460000 </v>
    <v>       0.11068511       0.55578315       0.95539999 </v>
    <v>       0.22244981       0.44401845       0.04460000 </v>
    <v>       0.11068511       0.88911647       0.95539999 </v>
    <v>       0.22244981       0.77735180       0.04460000 </v>
    <v>       0.44401845       0.22244981       0.95539999 </v>
    <v>       0.55578315       0.11068511       0.04460000 </v>
    <v>       0.44401845       0.55578315       0.95539999 </v>
    <v>       0.55578315       0.44401845       0.04460000 </v>
    <v>       0.44401845       0.88911647       0.95539999 </v>
    <v>       0.55578315       0.77735180       0.04460000 </v>
    <v>       0.77735180       0.22244981       0.95539999 </v>
    <v>       0.88911647       0.11068511       0.04460000 </v>
    <v>       0.77735180       0.55578315       0.95539999 </v>
    <v>       0.88911647       0.44401845       0.04460000 </v>
    <v>       0.77735180       0.88911647       0.95539999 </v>
    <v>       0.88911647       0.77735180       0.04460000 </v>
   </varray>
  </structure>
  <varray name="forces" >
   <v>      -0.44005333      -0.23723357       0.00196406 </v>
   <v>       0.21577267       0.12838158      -0.00389692 </v>
   <v>       0.22282402       0.11821204       0.00202029 </v>
   <v>       0.00118823      -0.28980157      -0.03933602 </v>
   <v>       0.26350249       0.13821054      -0.00199250 </v>
   <v>      -0.26610291       0.13749625       0.04059365 </v>
   <v>       0.00328803      -0.32326805      -0.02884417 </v>
   <v>      -0.29323989       0.15653918       0.03091230 </v>
   <v>       0.28825248       0.15227361      -0.00137443 </v>
   <v>       0.62589703      -0.56794433      -2.16144727 </v>
   <v>      -0.62733884      -0.57313051       2.18509029 </v>
   <v>       0.53624737       0.71478839      -2.19730978 </v>
   <v>      -0.37514839       0.72951073       2.16402774 </v>
   <v>      -0.76548274       0.00440346      -2.12238933 </v>
   <v>       0.76691585       0.00395831       2.15494823 </v>
   <v>       0.37205167       0.72631404      -2.13795089 </v>
   <v>      -0.37247866       0.72051931       2.17522367 </v>
   <v>      -0.62926990       0.00684402      -2.10003755 </v>
   <v>       0.62820544       0.00568390       2.12880086 </v>
   <v>       0.63318049      -0.57470093      -2.15761529 </v>
   <v>      -0.47531853      -0.60122112       2.14406465 </v>
   <v>      -0.68672414      -0.14811521      -2.14899365 </v>
   <v>       0.68796082      -0.15332950       2.08802512 </v>
   <v>       0.36871851      -0.72818184      -2.16350975 </v>
   <v>      -0.53026728      -0.71453092       2.16244794 </v>
   <v>       0.48366493       0.59764918      -2.17512675 </v>
   <v>      -0.63624541       0.57067302       2.16170549 </v>
  </varray>
  <varray name="stress" >
   <v>       7.32413325      -0.00823537      -1.52767148 </v>
   <v>      -0.00823532       4.43903905      -0.03501761 </v>
   <v>      -1.52767152      -0.03501779      30.25556429 </v>
  </varray>
  <energy>
   <i name="e_fr_energy">   -186.92819434 </i>
   <i name="e_wo_entrp">   -186.75596922 </i>
   <i name="e_0_energy">     -0.34445025 </i>
  </energy>
  <time name="totalsc">  793.20  795.30</time>
 </calculation>
 <calculation>
  <scstep>
   <time name="dav">   21.98   22.03</time>
   <time name="total">   22.52   22.57</time>
   <energy>
    <i name="alphaZ">     78.91939047 </i>
    <i name="ewald">  39381.12592562 </i>
    <i name="hartreedc"> -45338.97245465 </i>
    <i name="XCdc">   -239.04125523 </i>
    <i name="pawpsdc">   4192.23503665 </i>
    <i name="pawaedc">  -3610.27427899 </i>
    <i name="eentropy">     -0.28540008 </i>
    <i name="bandstr">  -1412.63703553 </i>
    <i name="atom">   6761.44252427 </i>
    <i name="e_fr_energy">   -187.48754744 </i>
    <i name="e_wo_entrp">   -187.20214737 </i>
    <i name="e_0_energy">   -187.34484741 </i>
   </energy>
  </scstep>
  <scstep>
   <time name="dav">   31.89   31.96</time>
   <time name="total">   32.43   32.52</time>
   <energy>
    <i name="e_fr_energy">   -189.40402614 </i>
    <i name="e_wo_entrp">   -189.08150918 </i>
    <i name="e_0_energy">   -189.24276766 </i>
   </energy>
  </scstep>
  <scstep>
   <time name="dav">   30.63   30.70</time>
   <time name="total">   31.17   31.26</time>
   <energy>
    <i name="e_fr_energy">   -189.39524198 </i>
    <i name="e_wo_entrp">   -189.10547768 </i>
    <i name="e_0_energy">   -189.25035983 </i>
   </energy>
  </scstep>
  <scstep>
   <time name="dav">   30.01   30.09</time>
   <time name="total">   30.56   30.64</time>
   <energy>
    <i name="e_fr_energy">   -188.76360805 </i>
    <i name="e_wo_entrp">   -188.48065641 </i>
    <i name="e_0_energy">   -188.62213223 </i>
   </energy>
  </scstep>
  <scstep>
   <time name="dav">   26.13   26.20</time>
   <time name="total">   26.68   26.75</time>
   <energy>
    <i name="e_fr_energy">   -188.77306172 </i>
    <i name="e_wo_entrp">   -188.48375775 </i>
    <i name="e_0_energy">   -188.62840973 </i>
   </energy>
  </scstep>
  <scstep>
   <time name="dav">   30.18   30.26</time>
   <time name="total">   30.73   30.81</time>
   <energy>
    <i name="e_fr_energy">   -188.71594033 </i>
    <i name="e_wo_entrp">   -188.43010018 </i>
    <i name="e_0_energy">   -188.57302026 </i>
   </energy>
  </scstep>
  <scstep>
   <time name="dav">   30.25   30.32</time>
   <time name="total">   30.79   30.88</time>
   <energy>
    <i name="e_fr_energy">   -188.72204974 </i>
    <i name="e_wo_entrp">   -188.43666597 </i>
    <i name="e_0_energy">   -188.57935786 </i>
   </energy>
  </scstep>
  <scstep>
   <time name="dav">   31.40   31.47</time>
   <time name="total">   31.94   32.02</time>
   <energy>
    <i name="e_fr_energy">   -188.67775664 </i>
    <i name="e_wo_entrp">   -188.39339695 </i>
    <i name="e_0_energy">   -188.53557680 </i>
   </energy>
  </scstep>
  <scstep>
   <time name="dav">   26.78   26.84</time>
   <time name="total">   27.32   27.39</time>
   <energy>
    <i name="e_fr_energy">   -188.67573919 </i>
    <i name="e_wo_entrp">   -188.39132773 </i>
    <i name="e_0_energy">   -188.53353346 </i>
   </energy>
  </scstep>
  <scstep>
   <time name="dav">   33.08   33.16</time>
   <time name="total">   33.63   33.71</time>
   <energy>
    <i name="e_fr_energy">   -188.67711723 </i>
    <i name="e_wo_entrp">   -188.39289933 </i>
    <i name="e_0_energy">   -188.53500828 </i>
   </energy>
  </scstep>
  <scstep>
   <time name="dav">   31.16   31.23</time>
   <time name="total">   31.70   31.79</time>
   <energy>
    <i name="e_fr_energy">   -188.67528563 </i>
    <i name="e_wo_entrp">   -188.39132307 </i>
    <i name="e_0_energy">   -188.53330435 </i>
   </energy>
  </scstep>
  <scstep>
   <time name="dav">   28.96   29.03</time>
   <time name="total">   29.51   29.59</time>
   <energy>
    <i name="e_fr_energy">   -188.67540492 </i>
    <i name="e_wo_entrp">   -188.39172221 </i>
    <i name="e_0_energy">   -188.53356356 </i>
   </energy>
  </scstep>
  <scstep>
   <time name="dav">   21.46   21.51</time>
   <time name="total">   21.50   21.55</time>
   <energy>
    <i name="alphaZ">     78.91939047 </i>
    <i name="ewald">  39381.12592562 </i>
    <i name="hartreedc"> -45349.58034242 </i>
    <i name="XCdc">   -237.96482736 </i>
    <i name="pawpsdc">   3950.55744080 </i>
    <i name="pawaedc">  -3365.08373502 </i>
    <i name="eentropy">     -0.28391277 </i>
    <i name="bandstr">  -1407.80780086 </i>
    <i name="atom">   6761.44252427 </i>
    <i name="e_fr_energy">   -188.67533726 </i>
    <i name="e_wo_entrp">   -188.39142449 </i>
    <i name="e_0_energy">   -188.53338088 </i>
   </energy>
  </scstep>
  <structure>
   <crystal>
    <varray name="basis" >
     <v>       8.85554490       5.10520611       0.00000000 </v>
     <v>      -8.85578747       5.10562388       0.00000000 </v>
     <v>       0.00000000       0.00000000      30.00000000 </v>
    </varray>
    <i name="volume">   2712.71105428 </i>
    <varray name="rec_basis" >
     <v>       0.05646334       0.09793657       0.00000000 </v>
     <v>      -0.05645872       0.09793389       0.00000000 </v>
     <v>       0.00000000       0.00000000       0.03333333 </v>
    </varray>
   </crystal>
   <varray name="positions" >
    <v>       0.33097365       0.66675559       0.00000316 </v>
    <v>       0.66788143       0.33334746      -0.00000627 </v>
    <v>       0.00118569      -0.00005417       0.00000325 </v>
    <v>       0.33194967      -0.00139029      -0.00006326 </v>
    <v>       0.00139458       0.66659505      -0.00000320 </v>
    <v>       0.99991771       0.33473174       0.00006528 </v>
    <v>       0.33179534       0.33177704      -0.00004638 </v>
    <v>       0.66660004       0.00156503       0.00004971 </v>
    <v>       0.66819743       0.66659350      -0.00000221 </v>
    <v>       0.10970829       0.21799029       0.95192419 </v>
    <v>       0.21796146       0.10968748       0.04811382 </v>
    <v>       0.11559800       0.55771219       0.95186652 </v>
    <v>       0.22489751       0.44855360       0.04807995 </v>
    <v>       0.10857649       0.89126724       0.95198700 </v>
    <v>       0.22460244       0.77523706       0.04806535 </v>
    <v>       0.44852968       0.22489082       0.95196198 </v>
    <v>       0.55819525       0.11516979       0.04809795 </v>
    <v>       0.44230048       0.55756664       0.95202294 </v>
    <v>       0.55755812       0.44229789       0.04802330 </v>
    <v>       0.44302956       0.88460435       0.95193035 </v>
    <v>       0.55158331       0.77579678       0.04804784 </v>
    <v>       0.77473234       0.22365151       0.95194422 </v>
    <v>       0.89029665       0.10803726       0.04795773 </v>
    <v>       0.77489257       0.55127226       0.95192087 </v>
    <v>       0.88422145       0.44207401       0.04807741 </v>
    <v>       0.78155777       0.89063117       0.95190219 </v>
    <v>       0.89007756       0.78185316       0.04807621 </v>
   </varray>
  </structure>
  <varray name="forces" >
   <v>      -0.39023931      -0.22567381       0.00127373 </v>
   <v>       0.19435473       0.11406058       0.00769758 </v>
   <v>       0.19876437       0.11264782      -0.00900590 </v>
   <v>      -0.00511692      -0.23736079      -0.08025412 </v>
   <v>       0.21553911       0.11761861      -0.00201886 </v>
   <v>      -0.21654780       0.12363667       0.08213733 </v>
   <v>       0.00682008      -0.26242155      -0.09907008 </v>
   <v>      -0.22156644       0.12469543       0.10182329 </v>
   <v>       0.21463831       0.12988193      -0.00242986 </v>
   <v>       0.07614924       0.04911721       0.02145260 </v>
   <v>      -0.08433555       0.03689906       0.07024695 </v>
   <v>       0.02650256       0.07159592      -0.16917437 </v>
   <v>       0.11170636       0.06597872      -0.02598931 </v>
   <v>      -0.04458599      -0.00936705      -0.10700360 </v>
   <v>       0.05719378      -0.00293682       0.18609578 </v>
   <v>      -0.11791923       0.05123780       0.10683282 </v>
   <v>       0.10151535       0.05319011      -0.02335390 </v>
   <v>       0.08564974       0.00313949       0.20698030 </v>
   <v>      -0.07108377      -0.00515470      -0.11003685 </v>
   <v>       0.09249108       0.05080155       0.01482017 </v>
   <v>       0.05240974       0.05493056      -0.22486702 </v>
   <v>       0.00396289      -0.10191211      -0.08726436 </v>
   <v>      -0.03074295      -0.11448379      -0.09086795 </v>
   <v>      -0.10027205      -0.05275924       0.01099793 </v>
   <v>      -0.03225496      -0.05493363       0.09507388 </v>
   <v>      -0.04735903      -0.04364073       0.13429857 </v>
   <v>      -0.07567334      -0.04878726      -0.00839477 </v>
  </varray>
  <varray name="stress" >
   <v>     -19.82655482       0.00202514       0.04354225 </v>
   <v>       0.00202518     -19.42433251      -0.02814247 </v>
   <v>       0.04354225      -0.02814251      -1.69130140 </v>
  </varray>
  <energy>
   <i name="e_fr_energy">   -188.67533726 </i>
   <i name="e_wo_entrp">   -188.53338088 </i>
   <i name="e_0_energy">     -0.28391277 </i>
  </energy>
  <time name="totalsc">  423.08  424.19</time>
 </calculation>
 <calculation>
  <scstep>
   <time name="dav">   23.43   23.48</time>
   <time name="total">   23.96   24.02</time>
   <energy>
    <i name="alphaZ">     82.33268000 </i>
    <i name="ewald">  41297.69652933 </i>
    <i name="hartreedc"> -47296.52505033 </i>
    <i name="XCdc">   -233.85705004 </i>
    <i name="pawpsdc">   3949.76694215 </i>
    <i name="pawaedc">  -3364.28665229 </i>
    <i name="eentropy">     -0.23495050 </i>
    <i name="bandstr">  -1386.90881434 </i>
    <i name="atom">   6761.44252427 </i>
    <i name="e_fr_energy">   -190.57384175 </i>
    <i name="e_wo_entrp">   -190.33889125 </i>
    <i name="e_0_energy">   -190.45636650 </i>
   </energy>
  </scstep>
  <scstep>
   <time name="dav">   28.46   28.53</time>
   <time name="total">   28.98   29.06</time>
   <energy>
    <i name="e_fr_energy">   -190.67518121 </i>
    <i name="e_wo_entrp">   -190.42859469 </i>
    <i name="e_0_energy">   -190.55188795 </i>
   </energy>
  </scstep>
  <scstep>
   <time name="dav">   30.39   30.46</time>
   <time name="total">   30.91   30.99</time>
   <energy>
    <i name="e_fr_energy">   -190.02907119 </i>
    <i name="e_wo_entrp">   -189.78452862 </i>
    <i name="e_0_energy">   -189.90679991 </i>
   </energy>
  </scstep>
  <scstep>
   <time name="dav">   30.29   30.36</time>
   <time name="total">   30.83   30.91</time>
   <energy>
    <i name="e_fr_energy">   -189.84650049 </i>
    <i name="e_wo_entrp">   -189.60436581 </i>
    <i name="e_0_energy">   -189.72543315 </i>
   </energy>
  </scstep>
  <scstep>
   <time name="dav">   29.87   29.94</time>
   <time name="total">   30.40   30.48</time>
   <energy>
    <i name="e_fr_energy">   -189.76770263 </i>
    <i name="e_wo_entrp">   -189.52641874 </i>
    <i name="e_0_energy">   -189.64706069 </i>
   </energy>
  </scstep>
  <scstep>
   <time name="dav">   29.62   29.69</time>
   <time name="total">   30.15   30.23</time>
   <energy>
    <i name="e_fr_energy">   -189.74946360 </i>
    <i name="e_wo_entrp">   -189.50968369 </i>
    <i name="e_0_energy">   -189.62957365 </i>
   </energy>
  </scstep>
  <scstep>
   <time name="dav">   28.69   28.76</time>
   <time name="total">   29.22   29.30</time>
   <energy>
    <i name="e_fr_energy">   -189.74393156 </i>
    <i name="e_wo_entrp">   -189.50459338 </i>
    <i name="e_0_energy">   -189.62426247 </i>
   </energy>
  </scstep>
  <scstep>
   <time name="dav">   30.45   30.53</time>
   <time name="total">   30.99   31.07</time>
   <energy>
    <i name="e_fr_energy">   -189.74395870 </i>
    <i name="e_wo_entrp">   -189.50466540 </i>
    <i name="e_0_energy">   -189.62431205 </i>
   </energy>
  </scstep>
  <scstep>
   <time name="dav">   27.03   27.09</time>
   <time name="total">   27.56   27.63</time>
   <energy>
    <i name="e_fr_energy">   -189.74410358 </i>
    <i name="e_wo_entrp">   -189.50462974 </i>
    <i name="e_0_energy">   -189.62436666 </i>
   </energy>
  </scstep>
  <scstep>
   <time name="dav">   26.60   26.66</time>
   <time name="total">   27.13   27.20</time>
   <energy>
    <i name="e_fr_energy">   -189.74459685 </i>
    <i name="e_wo_entrp">   -189.50514437 </i>
    <i name="e_0_energy">   -189.62487061 </i>
   </energy>
  </scstep>
  <scstep>
   <time name="dav">   24.00   24.06</time>
   <time name="total">   24.54   24.60</time>
   <energy>
    <i name="e_fr_energy">   -189.74396098 </i>
    <i name="e_wo_entrp">   -189.50462947 </i>
    <i name="e_0_energy">   -189.62429523 </i>
   </energy>
  </scstep>
  <scstep>
   <time name="dav">   16.99   17.03</time>
   <time name="total">   17.03   17.07</time>
   <energy>
    <i name="alphaZ">     82.33268000 </i>
    <i name="ewald">  41297.69652933 </i>
    <i name="hartreedc"> -47270.26830358 </i>
    <i name="XCdc">   -235.24315988 </i>
    <i name="pawpsdc">   4038.74134841 </i>
    <i name="pawaedc">  -3454.45612719 </i>
    <i name="eentropy">     -0.23936705 </i>
    <i name="bandstr">  -1409.75010909 </i>
    <i name="atom">   6761.44252427 </i>
    <i name="e_fr_energy">   -189.74398478 </i>
    <i name="e_wo_entrp">   -189.50461773 </i>
    <i name="e_0_energy">   -189.62430125 </i>
   </energy>
  </scstep>
  <structure>
   <crystal>
    <varray name="basis" >
     <v>       8.66814875       4.99937714       0.00000000 </v>
     <v>      -8.66836411       4.99974797       0.00000000 </v>
     <v>       0.00000000       0.00000000      30.00000000 </v>
    </varray>
    <i name="volume">   2600.24941409 </i>
    <varray name="rec_basis" >
     <v>       0.05768387       0.10000999       0.00000000 </v>
     <v>      -0.05767959       0.10000751       0.00000000 </v>
     <v>       0.00000000       0.00000000       0.03333333 </v>
    </varray>
   </crystal>
   <varray name="positions" >
    <v>       0.33022240       0.66675442       0.00000388 </v>
    <v>       0.66825836       0.33335082      -0.00000190 </v>
    <v>       0.00156451      -0.00005740      -0.00000186 </v>
    <v>       0.33154906      -0.00178105      -0.00010879 </v>
    <v>       0.00179780       0.66658399      -0.00000435 </v>
    <v>       0.99991570       0.33514594       0.00011188 </v>
    <v>       0.33136443       0.33133304      -0.00010259 </v>
    <v>       0.66659496       0.00198582       0.00010748 </v>
    <v>       0.66862023       0.66660374      -0.00000359 </v>
    <v>       0.10986335       0.21799899       0.95193636 </v>
    <v>       0.21794192       0.10983003       0.04815367 </v>
    <v>       0.11574282       0.55780607       0.95177054 </v>
    <v>       0.22511486       0.44855623       0.04806520 </v>
    <v>       0.10851802       0.89129447       0.95192629 </v>
    <v>       0.22465251       0.77517720       0.04817093 </v>
    <v>       0.44850177       0.22508956       0.95202259 </v>
    <v>       0.55838148       0.11516090       0.04808470 </v>
    <v>       0.44238803       0.55748956       0.95214038 </v>
    <v>       0.55748121       0.44235761       0.04796087 </v>
    <v>       0.44320314       0.88460015       0.95193876 </v>
    <v>       0.55172525       0.77583798       0.04792026 </v>
    <v>       0.77456626       0.22347782       0.95189471 </v>
    <v>       0.89007626       0.10787596       0.04790617 </v>
    <v>       0.77470825       0.55128067       0.95192711 </v>
    <v>       0.88409887       0.44201344       0.04813135 </v>
    <v>       0.78143950       0.89060393       0.95197839 </v>
    <v>       0.88992350       0.78184456       0.04807145 </v>
   </varray>
  </structure>
  <varray name="forces" >
   <v>      -0.37979115      -0.22204482      -0.00048333 </v>
   <v>       0.19159277       0.11203914       0.00682480 </v>
   <v>       0.19555519       0.10953070      -0.00629084 </v>
   <v>      -0.01075543      -0.22357762      -0.06408052 </v>
   <v>       0.19628953       0.10663799      -0.00056332 </v>
   <v>      -0.20362665       0.10852107       0.06475490 </v>
   <v>       0.01140642      -0.23943428      -0.08554608 </v>
   <v>      -0.19633573       0.11633378       0.08677727 </v>
   <v>       0.19491238       0.11832177      -0.00125180 </v>
   <v>       0.05106774      -0.09353996      -0.47652992 </v>
   <v>      -0.07114772      -0.09414482       0.57631769 </v>
   <v>       0.06241699       0.12908191      -0.67091138 </v>
   <v>       0.00100901       0.12841010       0.47077504 </v>
   <v>      -0.11458931      -0.02184211      -0.60165861 </v>
   <v>       0.12311606      -0.00158605       0.68697326 </v>
   <v>       0.00762031       0.10976058      -0.38229330 </v>
   <v>      -0.03768894       0.10123227       0.47652165 </v>
   <v>      -0.06141719       0.00669058      -0.27822056 </v>
   <v>       0.07034574      -0.01798321       0.38704476 </v>
   <v>       0.09402233      -0.07317887      -0.48055061 </v>
   <v>      -0.01977085      -0.07185029       0.26160780 </v>
   <v>      -0.10191778      -0.02236993      -0.59293608 </v>
   <v>       0.08387549      -0.03588307       0.39610028 </v>
   <v>       0.03411975      -0.10070147      -0.49313479 </v>
   <v>      -0.07995131      -0.10669779       0.59142953 </v>
   <v>       0.01352414       0.08648889      -0.36395050 </v>
   <v>      -0.05388180       0.09178551       0.49327466 </v>
  </varray>
  <varray name="stress" >
   <v>     -10.11884986       0.00539365       0.02598463 </v>
   <v>       0.00539363      -9.81062053      -0.02292897 </v>
   <v>       0.02598471      -0.02292898       6.48258291 </v>
  </varray>
  <energy>
   <i name="e_fr_energy">   -189.74398478 </i>
   <i name="e_wo_entrp">   -189.62430125 </i>
   <i name="e_0_energy">     -0.23936705 </i>
  </energy>
  <time name="totalsc">  374.54  375.52</time>
 </calculation>
 <calculation>
  <scstep>
   <time name="dav">   22.01   22.06</time>
   <time name="total">   22.54   22.59</time>
   <energy>
    <i name="alphaZ">     85.80112462 </i>
    <i name="ewald">  42823.87130302 </i>
    <i name="hartreedc"> -48840.86477478 </i>
    <i name="XCdc">   -232.95964244 </i>
    <i name="pawpsdc">   4038.71396832 </i>
    <i name="pawaedc">  -3454.42584644 </i>
    <i name="eentropy">     -0.19349495 </i>
    <i name="bandstr">  -1372.62165054 </i>
    <i name="atom">   6761.44252427 </i>
    <i name="e_fr_energy">   -191.23648891 </i>
    <i name="e_wo_entrp">   -191.04299396 </i>
    <i name="e_0_energy">   -191.13974144 </i>
   </energy>
  </scstep>
  <scstep>
   <time name="dav">   33.15   33.23</time>
   <time name="total">   33.67   33.76</time>
   <energy>
    <i name="e_fr_energy">   -191.35114151 </i>
    <i name="e_wo_entrp">   -191.13867271 </i>
    <i name="e_0_energy">   -191.24490711 </i>
   </energy>
  </scstep>
  <scstep>
   <time name="dav">   29.79   29.86</time>
   <time name="total">   30.31   30.39</time>
   <energy>
    <i name="e_fr_energy">   -191.00125285 </i>
    <i name="e_wo_entrp">   -190.79398811 </i>
    <i name="e_0_energy">   -190.89762048 </i>
   </energy>
  </scstep>
  <scstep>
   <time name="dav">   30.37   30.44</time>
   <time name="total">   30.90   31.09</time>
   <energy>
    <i name="e_fr_energy">   -190.75939348 </i>
    <i name="e_wo_entrp">   -190.55774951 </i>
    <i name="e_0_energy">   -190.65857150 </i>
   </energy>
  </scstep>
  <scstep>
   <time name="dav">   30.21   30.28</time>
   <time name="total">   30.73   30.81</time>
   <energy>
    <i name="e_fr_energy">   -190.66671003 </i>
    <i name="e_wo_entrp">   -190.46474558 </i>
    <i name="e_0_energy">   -190.56572781 </i>
   </energy>
  </scstep>
  <scstep>
   <time name="dav">   29.29   29.36</time>
   <time name="total">   29.82   29.89</time>
   <energy>
    <i name="e_fr_energy">   -190.65699760 </i>
    <i name="e_wo_entrp">   -190.45557454 </i>
    <i name="e_0_energy">   -190.55628607 </i>
   </energy>
  </scstep>
  <scstep>
   <time name="dav">   28.56   28.63</time>
   <time name="total">   29.09   29.16</time>
   <energy>
    <i name="e_fr_energy">   -190.64366991 </i>
    <i name="e_wo_entrp">   -190.44342549 </i>
    <i name="e_0_energy">   -190.54354770 </i>
   </energy>
  </scstep>
  <scstep>
   <time name="dav">   30.12   30.19</time>
   <time name="total">   30.64   30.72</time>
   <energy>
    <i name="e_fr_energy">   -190.63876514 </i>
    <i name="e_wo_entrp">   -190.43811740 </i>
    <i name="e_0_energy">   -190.53844127 </i>
   </energy>
  </scstep>
  <scstep>
   <time name="dav">   27.39   27.46</time>
   <time name="total">   27.91   27.99</time>
   <energy>
    <i name="e_fr_energy">   -190.63932523 </i>
    <i name="e_wo_entrp">   -190.43884537 </i>
    <i name="e_0_energy">   -190.53908530 </i>
   </energy>
  </scstep>
  <scstep>
   <time name="dav">   26.98   27.05</time>
   <time name="total">   27.51   27.58</time>
   <energy>
    <i name="e_fr_energy">   -190.63915634 </i>
    <i name="e_wo_entrp">   -190.43872743 </i>
    <i name="e_0_energy">   -190.53894188 </i>
   </energy>
  </scstep>
  <scstep>
   <time name="dav">   21.38   21.43</time>
   <time name="total">   21.42   21.48</time>
   <energy>
    <i name="alphaZ">     85.80112462 </i>
    <i name="ewald">  42823.87130302 </i>
    <i name="hartreedc"> -48812.46602927 </i>
    <i name="XCdc">   -234.28594684 </i>
    <i name="pawpsdc">   4062.44969763 </i>
    <i name="pawaedc">  -3478.32663988 </i>
    <i name="eentropy">     -0.20042741 </i>
    <i name="bandstr">  -1398.92468366 </i>
    <i name="atom">   6761.44252427 </i>
    <i name="e_fr_energy">   -190.63907751 </i>
    <i name="e_wo_entrp">   -190.43865010 </i>
    <i name="e_0_energy">   -190.53886381 </i>
   </energy>
  </scstep>
  <structure>
   <crystal>
    <varray name="basis" >
     <v>       8.48713579       4.89988676       0.00000000 </v>
     <v>      -8.48709607       4.89981571       0.00000000 </v>
     <v>       0.00000000       0.00000000      30.00000000 </v>
    </varray>
    <i name="volume">   2495.13632702 </i>
    <varray name="rec_basis" >
     <v>       0.05891240       0.10204368       0.00000000 </v>
     <v>      -0.05891326       0.10204415       0.00000000 </v>
     <v>       0.00000000       0.00000000       0.03333333 </v>
    </varray>
   </crystal>
   <varray name="positions" >
    <v>       0.32747984       0.66672986       0.00000138 </v>
    <v>       0.66964519       0.33335927       0.00001150 </v>
    <v>       0.00294655      -0.00008112      -0.00001259 </v>
    <v>       0.33013430      -0.00310168      -0.00022783 </v>
    <v>       0.00312151       0.66654293      -0.00000428 </v>
    <v>       0.99984039       0.33650673       0.00023129 </v>
    <v>       0.32996820       0.32984107      -0.00026838 </v>
    <v>       0.66662971       0.00336837       0.00027452 </v>
    <v>       0.67001010       0.66664018      -0.00000518 </v>
    <v>       0.10906805       0.21690660       0.95052426 </v>
    <v>       0.21678496       0.10914984       0.04977950 </v>
    <v>       0.11697401       0.55848190       0.94995234 </v>
    <v>       0.22592039       0.44967403       0.04946434 </v>
    <v>       0.10783415       0.89164186       0.95025766 </v>
    <v>       0.22518655       0.77463007       0.05002169 </v>
    <v>       0.44954550       0.22571569       0.95081336 </v>
    <v>       0.55879936       0.11625337       0.04949840 </v>
    <v>       0.44200437       0.55797490       0.95115021 </v>
    <v>       0.55779499       0.44175406       0.04918673 </v>
    <v>       0.44277613       0.88348841       0.95052055 </v>
    <v>       0.55078144       0.77524564       0.04887708 </v>
    <v>       0.77410354       0.22405824       0.95023477 </v>
    <v>       0.89051695       0.10737883       0.04914218 </v>
    <v>       0.77427408       0.55021164       0.95047535 </v>
    <v>       0.88294195       0.44157276       0.04978022 </v>
    <v>       0.78244459       0.89133537       0.95079941 </v>
    <v>       0.89068765       0.78293565       0.04952140 </v>
   </varray>
  </structure>
  <varray name="forces" >
   <v>      -0.35986016      -0.20907984      -0.00210078 </v>
   <v>       0.18307873       0.12562751       0.00359103 </v>
   <v>       0.20471915       0.09548959      -0.00141348 </v>
   <v>      -0.02891486      -0.22227973      -0.01326451 </v>
   <v>       0.16018177       0.09051748       0.00242939 </v>
   <v>      -0.20222773       0.08913846       0.01156869 </v>
   <v>       0.02131776      -0.24465713      -0.03556001 </v>
   <v>      -0.19228886       0.12801551       0.03322187 </v>
   <v>       0.22361646       0.13412947       0.00160667 </v>
   <v>      -0.03060414      -0.06364401      -0.32135522 </v>
   <v>       0.00080181      -0.05331811       0.39862993 </v>
   <v>       0.00559733       0.03074498      -0.50180465 </v>
   <v>      -0.02046997       0.03323595       0.31951006 </v>
   <v>      -0.00207131      -0.03187150      -0.45299290 </v>
   <v>       0.01466495      -0.01037851       0.50736278 </v>
   <v>       0.04040672       0.00786402      -0.25153268 </v>
   <v>      -0.07151534       0.00625520       0.32206518 </v>
   <v>      -0.03853878      -0.00278036      -0.13144087 </v>
   <v>       0.04338643      -0.02911078       0.22199957 </v>
   <v>       0.01718746      -0.03095423      -0.32103452 </v>
   <v>      -0.02795988      -0.04155752       0.12928719 </v>
   <v>      -0.03346816       0.02805698      -0.40132595 </v>
   <v>       0.01344322       0.03185760       0.25412295 </v>
   <v>       0.07489695       0.00514785      -0.35079539 </v>
   <v>      -0.03697427       0.00525996       0.44907309 </v>
   <v>       0.00129409       0.06511345      -0.21760763 </v>
   <v>       0.04030062       0.06317771       0.34776018 </v>
  </varray>
  <varray name="stress" >
   <v>      -5.74222801       0.00696141      -0.07565106 </v>
   <v>       0.00696133      -5.77449015       0.00065532 </v>
   <v>      -0.07565116       0.00065529       4.40817387 </v>
  </varray>
  <energy>
   <i name="e_fr_energy">   -190.63907751 </i>
   <i name="e_wo_entrp">   -190.53886381 </i>
   <i name="e_0_energy">     -0.20042741 </i>
  </energy>
  <time name="totalsc">  356.91  357.95</time>
 </calculation>
 <calculation>
  <scstep>
   <time name="dav">   22.05   22.10</time>
   <time name="total">   22.56   22.61</time>
   <energy>
    <i name="alphaZ">     90.20412385 </i>
    <i name="ewald">  44678.92568999 </i>
    <i name="hartreedc"> -50723.69556629 </i>
    <i name="XCdc">   -231.77998422 </i>
    <i name="pawpsdc">   4062.64867586 </i>
    <i name="pawaedc">  -3478.52231406 </i>
    <i name="eentropy">     -0.17395972 </i>
    <i name="bandstr">  -1350.98831539 </i>
    <i name="atom">   6761.44252427 </i>
    <i name="e_fr_energy">   -191.93912571 </i>
    <i name="e_wo_entrp">   -191.76516599 </i>
    <i name="e_0_energy">   -191.85214585 </i>
   </energy>
  </scstep>
  <scstep>
   <time name="dav">   33.21   33.29</time>
   <time name="total">   33.72   33.80</time>
   <energy>
    <i name="e_fr_energy">   -192.05408453 </i>
    <i name="e_wo_entrp">   -191.86343341 </i>
    <i name="e_0_energy">   -191.95875897 </i>
   </energy>
  </scstep>
  <scstep>
   <time name="dav">   29.23   29.30</time>
   <time name="total">   29.73   29.81</time>
   <energy>
    <i name="e_fr_energy">   -191.73278946 </i>
    <i name="e_wo_entrp">   -191.54118154 </i>
    <i name="e_0_energy">   -191.63698550 </i>
   </energy>
  </scstep>
  <scstep>
   <time name="dav">   30.24   30.31</time>
   <time name="total">   30.76   30.84</time>
   <energy>
    <i name="e_fr_energy">   -191.36304249 </i>
    <i name="e_wo_entrp">   -191.17993560 </i>
    <i name="e_0_energy">   -191.27148905 </i>
   </energy>
  </scstep>
  <scstep>
   <time name="dav">   30.91   30.99</time>
   <time name="total">   31.42   31.50</time>
   <energy>
    <i name="e_fr_energy">   -191.20543593 </i>
    <i name="e_wo_entrp">   -191.02528366 </i>
    <i name="e_0_energy">   -191.11535979 </i>
   </energy>
  </scstep>
  <scstep>
   <time name="dav">   30.96   31.04</time>
   <time name="total">   31.47   31.55</time>
   <energy>
    <i name="e_fr_energy">   -191.20271073 </i>
    <i name="e_wo_entrp">   -191.01846083 </i>
    <i name="e_0_energy">   -191.11058578 </i>
   </energy>
  </scstep>
  <scstep>
   <time name="dav">   30.59   30.66</time>
   <time name="total">   31.10   31.18</time>
   <energy>
    <i name="e_fr_energy">   -191.16948289 </i>
    <i name="e_wo_entrp">   -190.98724828 </i>
    <i name="e_0_energy">   -191.07836558 </i>
   </energy>
  </scstep>
  <scstep>
   <time name="dav">   28.08   28.14</time>
   <time name="total">   28.58   28.66</time>
   <energy>
    <i name="e_fr_energy">   -191.16424467 </i>
    <i name="e_wo_entrp">   -190.98227420 </i>
    <i name="e_0_energy">   -191.07325944 </i>
   </energy>
  </scstep>
  <scstep>
   <time name="dav">   28.45   28.51</time>
   <time name="total">   28.95   29.03</time>
   <energy>
    <i name="e_fr_energy">   -191.16500463 </i>
    <i name="e_wo_entrp">   -190.98323635 </i>
    <i name="e_0_energy">   -191.07412049 </i>
   </energy>
  </scstep>
  <scstep>
   <time name="dav">   26.66   26.72</time>
   <time name="total">   27.16   27.23</time>
   <energy>
    <i name="e_fr_energy">   -191.16473850 </i>
    <i name="e_wo_entrp">   -190.98298781 </i>
    <i name="e_0_energy">   -191.07386316 </i>
   </energy>
  </scstep>
  <scstep>
   <time name="dav">   20.77   20.82</time>
   <time name="total">   20.80   20.86</time>
   <energy>
    <i name="alphaZ">     90.20412385 </i>
    <i name="ewald">  44678.92568999 </i>
    <i name="hartreedc"> -50689.16564082 </i>
    <i name="XCdc">   -233.35868865 </i>
    <i name="pawpsdc">   4080.73175376 </i>
    <i name="pawaedc">  -3496.63271336 </i>
    <i name="eentropy">     -0.18176064 </i>
    <i name="bandstr">  -1383.12994255 </i>
    <i name="atom">   6761.44252427 </i>
    <i name="e_fr_energy">   -191.16465415 </i>
    <i name="e_wo_entrp">   -190.98289350 </i>
    <i name="e_0_energy">   -191.07377383 </i>
   </energy>
  </scstep>
  <structure>
   <crystal>
    <varray name="basis" >
     <v>       8.27824054       4.77892849       0.00000000 </v>
     <v>      -8.27767976       4.77795480       0.00000000 </v>
     <v>       0.00000000       0.00000000      30.00000000 </v>
    </varray>
    <i name="volume">   2373.34496258 </i>
    <varray name="rec_basis" >
     <v>       0.06039520       0.10463308       0.00000000 </v>
     <v>      -0.06040751       0.10464017       0.00000000 </v>
     <v>       0.00000000       0.00000000       0.03333333 </v>
    </varray>
   </crystal>
   <varray name="positions" >
    <v>       0.32228511       0.66670379      -0.00000801 </v>
    <v>       0.67249520       0.33357424       0.00002694 </v>
    <v>       0.00560295      -0.00033404      -0.00001826 </v>
    <v>       0.32721046      -0.00562708      -0.00029314 </v>
    <v>       0.00539411       0.66651089       0.00000539 </v>
    <v>       0.99950623       0.33903388       0.00028982 </v>
    <v>       0.32715473       0.32672553      -0.00042623 </v>
    <v>       0.66683544       0.00625609       0.00042332 </v>
    <v>       0.67315927       0.66670349       0.00000095 </v>
    <v>       0.10762301       0.21582538       0.94863724 </v>
    <v>       0.21562317       0.10807333       0.05200002 </v>
    <v>       0.11785077       0.55904424       0.94732290 </v>
    <v>       0.22636600       0.45074783       0.05134052 </v>
    <v>       0.10717351       0.89147069       0.94784428 </v>
    <v>       0.22540069       0.77419588       0.05267853 </v>
    <v>       0.45046105       0.22568865       0.94923146 </v>
    <v>       0.55846412       0.11735165       0.05138981 </v>
    <v>       0.44144712       0.55851627       0.95004998 </v>
    <v>       0.55799277       0.44079479       0.05067575 </v>
    <v>       0.44215502       0.88246414       0.94863507 </v>
    <v>       0.54952362       0.77461863       0.04996195 </v>
    <v>       0.77411333       0.22504345       0.94799611 </v>
    <v>       0.89139023       0.10753046       0.05073855 </v>
    <v>       0.77474207       0.54922763       0.94846992 </v>
    <v>       0.88227482       0.44168323       0.05217598 </v>
    <v>       0.78379942       0.89244036       0.94933724 </v>
    <v>       0.89217022       0.78395106       0.05151381 </v>
   </varray>
  </structure>
  <varray name="forces" >
   <v>      -0.28156625      -0.16201747       0.00473654 </v>
   <v>       0.13382332       0.17807126       0.02481767 </v>
   <v>       0.22086976       0.02442439      -0.02972538 </v>
   <v>      -0.03423788      -0.15277678       0.00742435 </v>
   <v>       0.00460483      -0.00540534      -0.00275303 </v>
   <v>      -0.15781065       0.04957036      -0.00359757 </v>
   <v>       0.01668073      -0.19751832      -0.02603634 </v>
   <v>      -0.16806641       0.10560703       0.02849431 </v>
   <v>       0.28381287       0.16081125      -0.00375865 </v>
   <v>      -0.08434444      -0.03308787      -0.02015726 </v>
   <v>       0.04978547      -0.01249744       0.12274558 </v>
   <v>      -0.05720639      -0.04384351      -0.16299098 </v>
   <v>      -0.01724957      -0.04987646       0.01603682 </v>
   <v>       0.09177770      -0.03700042      -0.12753657 </v>
   <v>      -0.06350897      -0.02652372       0.15656608 </v>
   <v>       0.04142925      -0.09248120       0.05073186 </v>
   <v>      -0.07398905      -0.05719644       0.01328336 </v>
   <v>      -0.00060730      -0.01002101       0.18006049 </v>
   <v>       0.02157381      -0.03761711      -0.05988250 </v>
   <v>      -0.05114783       0.01224701      -0.02083913 </v>
   <v>      -0.01246414       0.00412514      -0.17422247 </v>
   <v>       0.00914707       0.05172541      -0.10864475 </v>
   <v>      -0.06203716       0.08112679      -0.05270455 </v>
   <v>       0.08467466       0.08313191      -0.08886148 </v>
   <v>       0.01373325       0.09820317       0.12649854 </v>
   <v>      -0.01953732       0.03752698       0.05078065 </v>
   <v>       0.11186065       0.03129240       0.09953440 </v>
  </varray>
  <varray name="stress" >
   <v>      -0.35840988      -0.00674911      -0.04913032 </v>
   <v>      -0.00674894      -0.28897419       0.06822521 </v>
   <v>      -0.04913038       0.06822508      -0.66575145 </v>
  </varray>
  <energy>
   <i name="e_fr_energy">   -191.16465415 </i>
   <i name="e_wo_entrp">   -191.07377383 </i>
   <i name="e_0_energy">     -0.18176064 </i>
  </energy>
  <time name="totalsc">  358.85  359.78</time>
 </calculation>
 <calculation>
  <scstep>
   <time name="dav">   22.04   22.09</time>
   <time name="total">   22.55   22.60</time>
   <energy>
    <i name="alphaZ">     90.46078791 </i>
    <i name="ewald">  44780.38955793 </i>
    <i name="hartreedc"> -50794.07316649 </i>
    <i name="XCdc">   -233.24365937 </i>
    <i name="pawpsdc">   4080.80149172 </i>
    <i name="pawaedc">  -3496.69869592 </i>
    <i name="eentropy">     -0.18674816 </i>
    <i name="bandstr">  -1380.09696742 </i>
    <i name="atom">   6761.44252427 </i>
    <i name="e_fr_energy">   -191.20487552 </i>
    <i name="e_wo_entrp">   -191.01812736 </i>
    <i name="e_0_energy">   -191.11150144 </i>
   </energy>
  </scstep>
  <scstep>
   <time name="dav">   32.34   32.42</time>
   <time name="total">   32.85   32.94</time>
   <energy>
    <i name="e_fr_energy">   -191.21692553 </i>
    <i name="e_wo_entrp">   -191.02955807 </i>
    <i name="e_0_energy">   -191.12324180 </i>
   </energy>
  </scstep>
  <scstep>
   <time name="dav">   30.70   30.78</time>
   <time name="total">   31.21   31.29</time>
   <energy>
    <i name="e_fr_energy">   -191.21345239 </i>
    <i name="e_wo_entrp">   -191.02714107 </i>
    <i name="e_0_energy">   -191.12029673 </i>
   </energy>
  </scstep>
  <scstep>
   <time name="dav">   28.29   28.35</time>
   <time name="total">   28.79   28.87</time>
   <energy>
    <i name="e_fr_energy">   -191.20944946 </i>
    <i name="e_wo_entrp">   -191.02234380 </i>
    <i name="e_0_energy">   -191.11589663 </i>
   </energy>
  </scstep>
  <scstep>
   <time name="dav">   25.94   26.01</time>
   <time name="total">   26.45   26.52</time>
   <energy>
    <i name="e_fr_energy">   -191.20802271 </i>
    <i name="e_wo_entrp">   -191.02120077 </i>
    <i name="e_0_energy">   -191.11461174 </i>
   </energy>
  </scstep>
  <scstep>
   <time name="dav">   30.00   30.07</time>
   <time name="total">   30.51   30.59</time>
   <energy>
    <i name="e_fr_energy">   -191.20825817 </i>
    <i name="e_wo_entrp">   -191.02115706 </i>
    <i name="e_0_energy">   -191.11470761 </i>
   </energy>
  </scstep>
  <scstep>
   <time name="dav">   26.46   26.52</time>
   <time name="total">   26.96   27.04</time>
   <energy>
    <i name="e_fr_energy">   -191.20763001 </i>
    <i name="e_wo_entrp">   -191.02062955 </i>
    <i name="e_0_energy">   -191.11412978 </i>
   </energy>
  </scstep>
  <scstep>
   <time name="dav">   17.73   17.77</time>
   <time name="total">   17.77   17.82</time>
   <energy>
    <i name="alphaZ">     90.46078791 </i>
    <i name="ewald">  44780.38955793 </i>
    <i name="hartreedc"> -50792.93486341 </i>
    <i name="XCdc">   -233.31555531 </i>
    <i name="pawpsdc">   4080.33811772 </i>
    <i name="pawaedc">  -3496.21968345 </i>
    <i name="eentropy">     -0.18698880 </i>
    <i name="bandstr">  -1381.18156169 </i>
    <i name="atom">   6761.44252427 </i>
    <i name="e_fr_energy">   -191.20766482 </i>
    <i name="e_wo_entrp">   -191.02067602 </i>
    <i name="e_0_energy">   -191.11417042 </i>
   </energy>
  </scstep>
  <structure>
   <crystal>
    <varray name="basis" >
     <v>       8.26561439       4.77246250       0.00000000 </v>
     <v>      -8.26521560       4.77176924       0.00000000 </v>
     <v>       0.00000000       0.00000000      30.00000000 </v>
    </varray>
    <i name="volume">   2366.61107964 </i>
    <varray name="rec_basis" >
     <v>       0.06048864       0.10477280       0.00000000 </v>
     <v>      -0.06049742       0.10477785       0.00000000 </v>
     <v>       0.00000000       0.00000000       0.03333333 </v>
    </varray>
   </crystal>
   <varray name="positions" >
    <v>       0.32037130       0.66670548      -0.00000030 </v>
    <v>       0.67395692       0.33411925       0.00006971 </v>
    <v>       0.00650647      -0.00089254      -0.00006901 </v>
    <v>       0.32618858      -0.00642449      -0.00028305 </v>
    <v>       0.00545852       0.66646655       0.00000104 </v>
    <v>       0.99927314       0.33987220       0.00028600 </v>
    <v>       0.32605538       0.32551286      -0.00047631 </v>
    <v>       0.66688838       0.00743659       0.00047728 </v>
    <v>       0.67499924       0.66668953      -0.00000524 </v>
    <v>       0.10712622       0.21585940       0.94852396 </v>
    <v>       0.21565789       0.10780636       0.05229984 </v>
    <v>       0.11748131       0.55901109       0.94694062 </v>
    <v>       0.22606617       0.45058381       0.05144633 </v>
    <v>       0.10723010       0.89098910       0.94753023 </v>
    <v>       0.22507627       0.77423033       0.05305095 </v>
    <v>       0.45013891       0.22507002       0.94924987 </v>
    <v>       0.55792137       0.11732414       0.05149158 </v>
    <v>       0.44136672       0.55849032       0.95030498 </v>
    <v>       0.55787098       0.44048753       0.05063916 </v>
    <v>       0.44203295       0.88263973       0.94852070 </v>
    <v>       0.54945110       0.77465014       0.04971619 </v>
    <v>       0.77441576       0.22533477       0.94771948 </v>
    <v>       0.89167127       0.10815673       0.05071738 </v>
    <v>       0.77546007       0.54936458       0.94823570 </v>
    <v>       0.88280753       0.44216404       0.05248761 </v>
    <v>       0.78399897       0.89274637       0.94935949 </v>
    <v>       0.89274292       0.78382057       0.05176571 </v>
   </varray>
  </structure>
  <varray name="forces" >
   <v>      -0.30279233      -0.17272201      -0.00132708 </v>
   <v>       0.14094595       0.20475798       0.02170511 </v>
   <v>       0.25492741       0.02154954      -0.01950207 </v>
   <v>      -0.03891472      -0.16354921       0.01222581 </v>
   <v>      -0.02521253      -0.00970992       0.00123569 </v>
   <v>      -0.15207058       0.05625968      -0.01415232 </v>
   <v>       0.00752155      -0.25545802      -0.03890002 </v>
   <v>      -0.20488770       0.11807128       0.03846138 </v>
   <v>       0.33577046       0.20563909       0.00099395 </v>
   <v>      -0.05557860      -0.05009550       0.01379947 </v>
   <v>       0.02366139      -0.02551243       0.08431109 </v>
   <v>      -0.04225536      -0.02334142      -0.11564339 </v>
   <v>      -0.01440837      -0.02290871      -0.00953368 </v>
   <v>       0.05449588      -0.02775480      -0.09872979 </v>
   <v>      -0.04184816      -0.02641841       0.11382037 </v>
   <v>       0.03754640      -0.05570125       0.09003505 </v>
   <v>      -0.07362922      -0.02574154      -0.01199790 </v>
   <v>       0.00041283       0.00651161       0.22379174 </v>
   <v>       0.02051551      -0.02116160      -0.07930852 </v>
   <v>      -0.02548545       0.00072953       0.00906097 </v>
   <v>       0.00358193      -0.00346768      -0.21744570 </v>
   <v>      -0.00780458       0.03537967      -0.08165146 </v>
   <v>      -0.02879619       0.05810217      -0.09751105 </v>
   <v>       0.06990955       0.04227655      -0.10424968 </v>
   <v>       0.00277511       0.06350045       0.10324350 </v>
   <v>      -0.00552524       0.03160692       0.07614286 </v>
   <v>       0.06714506       0.03915805       0.10112567 </v>
  </varray>
  <varray name="stress" >
   <v>       0.19066910       0.00305708      -0.06949441 </v>
   <v>       0.00305699       0.16937279       0.08247642 </v>
   <v>      -0.06949448       0.08247649      -1.18256873 </v>
  </varray>
  <energy>
   <i name="e_fr_energy">   -191.20766482 </i>
   <i name="e_wo_entrp">   -191.11417042 </i>
   <i name="e_0_energy">     -0.18698880 </i>
  </energy>
  <time name="totalsc">  259.64  260.31</time>
 </calculation>
 <calculation>
  <scstep>
   <time name="dav">   21.97   22.02</time>
   <time name="total">   22.47   22.53</time>
   <energy>
    <i name="alphaZ">     90.36487336 </i>
    <i name="ewald">  44744.05229355 </i>
    <i name="hartreedc"> -50755.31875161 </i>
    <i name="XCdc">   -233.35423117 </i>
    <i name="pawpsdc">   4080.42153621 </i>
    <i name="pawaedc">  -3496.30358990 </i>
    <i name="eentropy">     -0.18921314 </i>
    <i name="bandstr">  -1382.33536971 </i>
    <i name="atom">   6761.44252427 </i>
    <i name="e_fr_energy">   -191.21992812 </i>
    <i name="e_wo_entrp">   -191.03071498 </i>
    <i name="e_0_energy">   -191.12532155 </i>
   </energy>
  </scstep>
  <scstep>
   <time name="dav">   29.21   29.28</time>
   <time name="total">   29.71   29.79</time>
   <energy>
    <i name="e_fr_energy">   -191.22073084 </i>
    <i name="e_wo_entrp">   -191.03147332 </i>
    <i name="e_0_energy">   -191.12610208 </i>
   </energy>
  </scstep>
  <scstep>
   <time name="dav">   30.66   30.74</time>
   <time name="total">   31.17   31.25</time>
   <energy>
    <i name="e_fr_energy">   -191.22067563 </i>
    <i name="e_wo_entrp">   -191.03181540 </i>
    <i name="e_0_energy">   -191.12624551 </i>
   </energy>
  </scstep>
  <scstep>
   <time name="dav">   25.33   25.40</time>
   <time name="total">   25.84   25.91</time>
   <energy>
    <i name="e_fr_energy">   -191.22009795 </i>
    <i name="e_wo_entrp">   -191.03090844 </i>
    <i name="e_0_energy">   -191.12550319 </i>
   </energy>
  </scstep>
  <scstep>
   <time name="dav">   23.59   23.65</time>
   <time name="total">   23.62   23.69</time>
   <energy>
    <i name="alphaZ">     90.36487336 </i>
    <i name="ewald">  44744.05229355 </i>
    <i name="hartreedc"> -50756.53771380 </i>
    <i name="XCdc">   -233.31830502 </i>
    <i name="pawpsdc">   4081.69927912 </i>
    <i name="pawaedc">  -3497.59457550 </i>
    <i name="eentropy">     -0.18914394 </i>
    <i name="bandstr">  -1381.13925555 </i>
    <i name="atom">   6761.44252427 </i>
    <i name="e_fr_energy">   -191.22002351 </i>
    <i name="e_wo_entrp">   -191.03087957 </i>
    <i name="e_0_energy">   -191.12545154 </i>
   </energy>
  </scstep>
  <structure>
   <crystal>
    <varray name="basis" >
     <v>       8.27011892       4.77495226       0.00000000 </v>
     <v>      -8.26969703       4.77421904       0.00000000 </v>
     <v>       0.00000000       0.00000000      30.00000000 </v>
    </varray>
    <i name="volume">   2369.12303382 </i>
    <varray name="rec_basis" >
     <v>       0.06045552       0.10471846       0.00000000 </v>
     <v>      -0.06046481       0.10472380       0.00000000 </v>
     <v>       0.00000000       0.00000000       0.03333333 </v>
    </varray>
   </crystal>
   <varray name="positions" >
    <v>       0.31988657       0.66671007      -0.00000115 </v>
    <v>       0.67438979       0.33433000       0.00008098 </v>
    <v>       0.00674000      -0.00110629      -0.00007889 </v>
    <v>       0.32593127      -0.00661247      -0.00027454 </v>
    <v>       0.00536364       0.66647799       0.00000173 </v>
    <v>       0.99922822       0.34006443       0.00027625 </v>
    <v>       0.32567495       0.32512602      -0.00049457 </v>
[...]
      <set comment="kpoint 31">
       <r>  -17.4836    1.0000 </r>
       <r>  -17.2864    1.0000 </r>
       <r>  -16.9350    1.0000 </r>
       <r>  -16.5905    1.0000 </r>
       <r>  -16.5254    1.0000 </r>
       <r>  -16.4338    1.0000 </r>
       <r>  -16.2842    1.0000 </r>
       <r>  -16.1523    1.0000 </r>
       <r>  -16.0766    1.0000 </r>
       <r>  -16.0400    1.0000 </r>
       <r>  -15.9193    1.0000 </r>
       <r>  -15.8916    1.0000 </r>
       <r>  -15.7873    1.0000 </r>
       <r>  -15.7408    1.0000 </r>
       <r>  -15.6586    1.0000 </r>
       <r>  -15.4945    1.0000 </r>
       <r>  -15.4776    1.0000 </r>
       <r>  -15.3389    1.0000 </r>
       <r>   -9.7197    1.0000 </r>
       <r>   -9.3802    1.0000 </r>
       <r>   -9.3121    1.0000 </r>
       <r>   -8.9324    1.0000 </r>
       <r>   -8.8508    1.0000 </r>
       <r>   -8.7465    1.0000 </r>
       <r>   -8.5920    1.0000 </r>
       <r>   -8.5571    1.0000 </r>
       <r>   -8.4168    1.0000 </r>
       <r>   -8.3331    1.0000 </r>
       <r>   -8.2508    1.0000 </r>
       <r>   -8.1799    1.0000 </r>
       <r>   -8.1098    1.0000 </r>
       <r>   -8.0631    1.0000 </r>
       <r>   -8.0254    1.0000 </r>
       <r>   -7.9292    1.0000 </r>
       <r>   -7.8162    1.0000 </r>
       <r>   -7.6258    1.0000 </r>
       <r>   -7.5703    1.0000 </r>
       <r>   -7.4828    1.0000 </r>
       <r>   -7.3673    1.0000 </r>
       <r>   -7.3157    1.0000 </r>
       <r>   -7.2521    1.0000 </r>
       <r>   -7.1094    1.0000 </r>
       <r>   -7.0153    1.0000 </r>
       <r>   -6.9659    1.0000 </r>
       <r>   -6.8646    1.0000 </r>
       <r>   -6.7902    1.0000 </r>
       <r>   -6.6857    1.0000 </r>
       <r>   -6.5802    1.0000 </r>
       <r>   -6.4813    1.0000 </r>
       <r>   -6.4548    1.0000 </r>
       <r>   -6.4125    1.0000 </r>
       <r>   -6.3614    1.0000 </r>
       <r>   -6.2776    1.0000 </r>
       <r>   -6.1527    1.0000 </r>
       <r>   -6.0887    1.0000 </r>
       <r>   -6.0232    1.0000 </r>
       <r>   -5.9589    1.0000 </r>
       <r>   -5.9171    1.0000 </r>
       <r>   -5.8274    1.0000 </r>
       <r>   -5.7372    1.0000 </r>
       <r>   -5.6693    1.0000 </r>
       <r>   -5.5650    1.0000 </r>
       <r>   -5.5484    1.0000 </r>
       <r>   -5.4750    1.0000 </r>
       <r>   -5.3988    1.0000 </r>
       <r>   -5.1888    1.0000 </r>
       <r>   -5.1209    1.0000 </r>
       <r>   -4.8732    1.0000 </r>
       <r>   -4.7648    1.0000 </r>
       <r>   -4.6844    1.0000 </r>
       <r>   -4.6101    1.0000 </r>
       <r>   -4.4277    1.0000 </r>
       <r>   -4.1740    1.0000 </r>
       <r>   -4.1460    1.0000 </r>
       <r>   -4.1211    1.0000 </r>
       <r>   -3.9320    1.0000 </r>
       <r>   -3.8124    0.9993 </r>
       <r>   -3.5928    0.9481 </r>
       <r>   -3.4756    0.7876 </r>
       <r>   -3.3825    0.5557 </r>
       <r>   -3.0783    0.0222 </r>
       <r>   -2.8299    0.0001 </r>
       <r>   -2.7361    0.0000 </r>
       <r>   -2.5062    0.0000 </r>
       <r>   -2.4431    0.0000 </r>
       <r>   -2.3481    0.0000 </r>
       <r>   -2.0301    0.0000 </r>
       <r>   -1.9082    0.0000 </r>
       <r>   -1.8769    0.0000 </r>
       <r>   -1.7776    0.0000 </r>
       <r>   -1.6255    0.0000 </r>
       <r>   -1.5236    0.0000 </r>
       <r>   -1.4410    0.0000 </r>
       <r>   -1.3369    0.0000 </r>
       <r>   -1.2489    0.0000 </r>
       <r>   -1.2318    0.0000 </r>
       <r>   -1.1066    0.0000 </r>
       <r>   -1.0725    0.0000 </r>
       <r>   -1.0060    0.0000 </r>
       <r>   -0.9739    0.0000 </r>
       <r>   -0.8714    0.0000 </r>
       <r>   -0.8184    0.0000 </r>
       <r>   -0.7782    0.0000 </r>
       <r>   -0.6313    0.0000 </r>
       <r>   -0.5860    0.0000 </r>
       <r>   -0.4580    0.0000 </r>
       <r>   -0.3415    0.0000 </r>
       <r>    0.0141    0.0000 </r>
       <r>    0.1419    0.0000 </r>
       <r>    0.1976    0.0000 </r>
       <r>    0.4912    0.0000 </r>
       <r>    0.8456    0.0000 </r>
       <r>    0.8813    0.0000 </r>
       <r>    1.0417    0.0000 </r>
       <r>    1.1434    0.0000 </r>
       <r>    1.2093    0.0000 </r>
       <r>    1.2692    0.0000 </r>
       <r>    2.1474    0.0000 </r>
       <r>    2.2895    0.0000 </r>
       <r>    2.4071    0.0000 </r>
      </set>
      <set comment="kpoint 32">
       <r>  -17.5072    1.0000 </r>
       <r>  -17.1739    1.0000 </r>
       <r>  -17.0810    1.0000 </r>
       <r>  -16.6048    1.0000 </r>
       <r>  -16.4701    1.0000 </r>
       <r>  -16.3191    1.0000 </r>
       <r>  -16.2692    1.0000 </r>
       <r>  -16.2260    1.0000 </r>
       <r>  -16.0668    1.0000 </r>
       <r>  -16.0096    1.0000 </r>
       <r>  -15.9731    1.0000 </r>
       <r>  -15.9311    1.0000 </r>
       <r>  -15.8126    1.0000 </r>
       <r>  -15.7363    1.0000 </r>
       <r>  -15.6503    1.0000 </r>
       <r>  -15.4931    1.0000 </r>
       <r>  -15.4692    1.0000 </r>
       <r>  -15.3238    1.0000 </r>
       <r>   -9.6466    1.0000 </r>
       <r>   -9.5369    1.0000 </r>
       <r>   -9.3537    1.0000 </r>
       <r>   -8.8457    1.0000 </r>
       <r>   -8.7437    1.0000 </r>
       <r>   -8.6425    1.0000 </r>
       <r>   -8.5502    1.0000 </r>
       <r>   -8.5013    1.0000 </r>
       <r>   -8.4493    1.0000 </r>
       <r>   -8.3557    1.0000 </r>
       <r>   -8.3271    1.0000 </r>
       <r>   -8.2325    1.0000 </r>
       <r>   -8.1635    1.0000 </r>
       <r>   -8.1509    1.0000 </r>
       <r>   -8.0328    1.0000 </r>
       <r>   -7.9186    1.0000 </r>
       <r>   -7.8742    1.0000 </r>
       <r>   -7.6432    1.0000 </r>
       <r>   -7.5166    1.0000 </r>
       <r>   -7.4125    1.0000 </r>
       <r>   -7.3104    1.0000 </r>
       <r>   -7.2578    1.0000 </r>
       <r>   -7.2297    1.0000 </r>
       <r>   -7.1387    1.0000 </r>
       <r>   -7.0838    1.0000 </r>
       <r>   -6.9889    1.0000 </r>
       <r>   -6.8796    1.0000 </r>
       <r>   -6.8079    1.0000 </r>
       <r>   -6.6603    1.0000 </r>
       <r>   -6.6192    1.0000 </r>
       <r>   -6.5101    1.0000 </r>
       <r>   -6.4574    1.0000 </r>
       <r>   -6.4108    1.0000 </r>
       <r>   -6.3463    1.0000 </r>
       <r>   -6.2932    1.0000 </r>
       <r>   -6.1904    1.0000 </r>
       <r>   -6.1133    1.0000 </r>
       <r>   -6.0419    1.0000 </r>
       <r>   -5.9177    1.0000 </r>
       <r>   -5.8684    1.0000 </r>
       <r>   -5.7997    1.0000 </r>
       <r>   -5.6956    1.0000 </r>
       <r>   -5.6558    1.0000 </r>
       <r>   -5.6010    1.0000 </r>
       <r>   -5.4852    1.0000 </r>
       <r>   -5.4481    1.0000 </r>
       <r>   -5.3550    1.0000 </r>
       <r>   -5.2333    1.0000 </r>
       <r>   -5.0680    1.0000 </r>
       <r>   -5.0124    1.0000 </r>
       <r>   -4.8212    1.0000 </r>
       <r>   -4.6620    1.0000 </r>
       <r>   -4.5731    1.0000 </r>
       <r>   -4.4278    1.0000 </r>
       <r>   -4.2576    1.0000 </r>
       <r>   -4.1781    1.0000 </r>
       <r>   -4.0851    1.0000 </r>
       <r>   -3.8918    0.9999 </r>
       <r>   -3.7613    0.9976 </r>
       <r>   -3.6498    0.9788 </r>
       <r>   -3.5301    0.8817 </r>
       <r>   -3.3681    0.5153 </r>
       <r>   -3.0466    0.0127 </r>
       <r>   -2.7886    0.0000 </r>
       <r>   -2.6615    0.0000 </r>
       <r>   -2.5190    0.0000 </r>
       <r>   -2.4096    0.0000 </r>
       <r>   -2.3060    0.0000 </r>
       <r>   -2.0630    0.0000 </r>
       <r>   -1.9239    0.0000 </r>
       <r>   -1.8771    0.0000 </r>
       <r>   -1.7720    0.0000 </r>
       <r>   -1.6336    0.0000 </r>
       <r>   -1.5519    0.0000 </r>
       <r>   -1.4465    0.0000 </r>
       <r>   -1.3511    0.0000 </r>
       <r>   -1.2996    0.0000 </r>
       <r>   -1.2342    0.0000 </r>
       <r>   -1.1055    0.0000 </r>
       <r>   -1.0532    0.0000 </r>
       <r>   -1.0328    0.0000 </r>
       <r>   -0.9510    0.0000 </r>
       <r>   -0.9126    0.0000 </r>
       <r>   -0.8466    0.0000 </r>
       <r>   -0.7739    0.0000 </r>
       <r>   -0.6770    0.0000 </r>
       <r>   -0.5553    0.0000 </r>
       <r>   -0.3878    0.0000 </r>
       <r>   -0.2668    0.0000 </r>
       <r>    0.0289    0.0000 </r>
       <r>    0.1486    0.0000 </r>
       <r>    0.2047    0.0000 </r>
       <r>    0.5095    0.0000 </r>
       <r>    0.7454    0.0000 </r>
       <r>    0.8296    0.0000 </r>
       <r>    0.9974    0.0000 </r>
       <r>    1.1357    0.0000 </r>
       <r>    1.2277    0.0000 </r>
       <r>    1.3304    0.0000 </r>
       <r>    2.1119    0.0000 </r>
       <r>    2.2587    0.0000 </r>
       <r>    2.5772    0.0000 </r>
      </set>
      <set comment="kpoint 33">
       <r>  -17.4868    1.0000 </r>
       <r>  -17.2890    1.0000 </r>
       <r>  -16.9306    1.0000 </r>
       <r>  -16.6201    1.0000 </r>
       <r>  -16.4977    1.0000 </r>
       <r>  -16.4355    1.0000 </r>
       <r>  -16.2623    1.0000 </r>
       <r>  -16.1280    1.0000 </r>
       <r>  -16.0385    1.0000 </r>
       <r>  -16.0124    1.0000 </r>
       <r>  -15.9642    1.0000 </r>
       <r>  -15.9192    1.0000 </r>
       <r>  -15.8422    1.0000 </r>
       <r>  -15.7426    1.0000 </r>
       <r>  -15.6599    1.0000 </r>
       <r>  -15.5009    1.0000 </r>
       <r>  -15.4703    1.0000 </r>
       <r>  -15.3188    1.0000 </r>
       <r>   -9.7148    1.0000 </r>
       <r>   -9.4457    1.0000 </r>
       <r>   -9.2435    1.0000 </r>
       <r>   -8.9573    1.0000 </r>
       <r>   -8.8078    1.0000 </r>
       <r>   -8.7347    1.0000 </r>
       <r>   -8.5225    1.0000 </r>
       <r>   -8.4728    1.0000 </r>
       <r>   -8.4352    1.0000 </r>
       <r>   -8.3861    1.0000 </r>
       <r>   -8.3245    1.0000 </r>
       <r>   -8.2521    1.0000 </r>
       <r>   -8.1816    1.0000 </r>
       <r>   -8.0968    1.0000 </r>
       <r>   -7.9393    1.0000 </r>
       <r>   -7.9072    1.0000 </r>
       <r>   -7.8203    1.0000 </r>
       <r>   -7.7105    1.0000 </r>
       <r>   -7.5304    1.0000 </r>
       <r>   -7.3967    1.0000 </r>
       <r>   -7.3553    1.0000 </r>
       <r>   -7.2750    1.0000 </r>
       <r>   -7.1493    1.0000 </r>
       <r>   -7.0973    1.0000 </r>
       <r>   -7.0115    1.0000 </r>
       <r>   -6.9703    1.0000 </r>
       <r>   -6.8858    1.0000 </r>
       <r>   -6.8332    1.0000 </r>
       <r>   -6.7450    1.0000 </r>
       <r>   -6.5709    1.0000 </r>
       <r>   -6.5223    1.0000 </r>
       <r>   -6.4671    1.0000 </r>
       <r>   -6.4029    1.0000 </r>
       <r>   -6.3370    1.0000 </r>
       <r>   -6.2725    1.0000 </r>
       <r>   -6.1993    1.0000 </r>
       <r>   -6.1710    1.0000 </r>
       <r>   -6.0786    1.0000 </r>
       <r>   -5.9922    1.0000 </r>
       <r>   -5.9025    1.0000 </r>
       <r>   -5.8263    1.0000 </r>
       <r>   -5.7673    1.0000 </r>
       <r>   -5.6961    1.0000 </r>
       <r>   -5.5965    1.0000 </r>
       <r>   -5.4970    1.0000 </r>
       <r>   -5.4328    1.0000 </r>
       <r>   -5.2744    1.0000 </r>
       <r>   -5.1296    1.0000 </r>
       <r>   -5.0700    1.0000 </r>
       <r>   -4.9295    1.0000 </r>
       <r>   -4.8237    1.0000 </r>
       <r>   -4.6916    1.0000 </r>
       <r>   -4.5158    1.0000 </r>
       <r>   -4.4028    1.0000 </r>
       <r>   -4.3077    1.0000 </r>
       <r>   -4.1831    1.0000 </r>
       <r>   -4.0976    1.0000 </r>
       <r>   -3.8726    0.9998 </r>
       <r>   -3.7844    0.9986 </r>
       <r>   -3.6747    0.9863 </r>
       <r>   -3.5835    0.9408 </r>
       <r>   -3.4115    0.6349 </r>
       <r>   -2.9720    0.0029 </r>
       <r>   -2.7588    0.0000 </r>
       <r>   -2.6146    0.0000 </r>
       <r>   -2.5368    0.0000 </r>
       <r>   -2.3715    0.0000 </r>
       <r>   -2.2689    0.0000 </r>
       <r>   -2.0876    0.0000 </r>
       <r>   -1.9251    0.0000 </r>
       <r>   -1.8625    0.0000 </r>
       <r>   -1.7438    0.0000 </r>
       <r>   -1.6415    0.0000 </r>
       <r>   -1.5634    0.0000 </r>
       <r>   -1.4659    0.0000 </r>
       <r>   -1.3913    0.0000 </r>
       <r>   -1.3200    0.0000 </r>
       <r>   -1.2337    0.0000 </r>
       <r>   -1.1338    0.0000 </r>
       <r>   -1.0513    0.0000 </r>
       <r>   -1.0390    0.0000 </r>
       <r>   -0.9815    0.0000 </r>
       <r>   -0.9347    0.0000 </r>
       <r>   -0.8448    0.0000 </r>
       <r>   -0.7729    0.0000 </r>
       <r>   -0.7139    0.0000 </r>
       <r>   -0.4799    0.0000 </r>
       <r>   -0.3717    0.0000 </r>
       <r>   -0.2058    0.0000 </r>
       <r>   -0.0307    0.0000 </r>
       <r>    0.1047    0.0000 </r>
       <r>    0.2745    0.0000 </r>
       <r>    0.5280    0.0000 </r>
       <r>    0.6752    0.0000 </r>
       <r>    0.8257    0.0000 </r>
       <r>    0.9582    0.0000 </r>
       <r>    1.1056    0.0000 </r>
       <r>    1.2696    0.0000 </r>
       <r>    1.4283    0.0000 </r>
       <r>    2.1396    0.0000 </r>
       <r>    2.2940    0.0000 </r>
       <r>    2.4006    0.0000 </r>
      </set>
      <set comment="kpoint 34">
       <r>  -17.4463    1.0000 </r>
       <r>  -17.3725    1.0000 </r>
       <r>  -16.7473    1.0000 </r>
       <r>  -16.7064    1.0000 </r>
       <r>  -16.5950    1.0000 </r>
       <r>  -16.4410    1.0000 </r>
       <r>  -16.2515    1.0000 </r>
       <r>  -16.1259    1.0000 </r>
       <r>  -16.0357    1.0000 </r>
       <r>  -15.9981    1.0000 </r>
       <r>  -15.9340    1.0000 </r>
       <r>  -15.8923    1.0000 </r>
       <r>  -15.8174    1.0000 </r>
       <r>  -15.7892    1.0000 </r>
       <r>  -15.6693    1.0000 </r>
       <r>  -15.5062    1.0000 </r>
       <r>  -15.4720    1.0000 </r>
       <r>  -15.3196    1.0000 </r>
       <r>   -9.7550    1.0000 </r>
       <r>   -9.2968    1.0000 </r>
       <r>   -9.1766    1.0000 </r>
       <r>   -9.0576    1.0000 </r>
       <r>   -8.9442    1.0000 </r>
       <r>   -8.7624    1.0000 </r>
       <r>   -8.5542    1.0000 </r>
       <r>   -8.4788    1.0000 </r>
       <r>   -8.4457    1.0000 </r>
       <r>   -8.3605    1.0000 </r>
       <r>   -8.2831    1.0000 </r>
       <r>   -8.2561    1.0000 </r>
       <r>   -8.2154    1.0000 </r>
       <r>   -8.0244    1.0000 </r>
       <r>   -7.9244    1.0000 </r>
       <r>   -7.8812    1.0000 </r>
       <r>   -7.7360    1.0000 </r>
       <r>   -7.6394    1.0000 </r>
       <r>   -7.5960    1.0000 </r>
       <r>   -7.5451    1.0000 </r>
       <r>   -7.3598    1.0000 </r>
       <r>   -7.2250    1.0000 </r>
       <r>   -7.1249    1.0000 </r>
       <r>   -7.0654    1.0000 </r>
       <r>   -7.0336    1.0000 </r>
       <r>   -6.9199    1.0000 </r>
       <r>   -6.9140    1.0000 </r>
       <r>   -6.7791    1.0000 </r>
       <r>   -6.6771    1.0000 </r>
       <r>   -6.6221    1.0000 </r>
       <r>   -6.5470    1.0000 </r>
       <r>   -6.4670    1.0000 </r>
       <r>   -6.4260    1.0000 </r>
       <r>   -6.3134    1.0000 </r>
       <r>   -6.2898    1.0000 </r>
       <r>   -6.2438    1.0000 </r>
       <r>   -6.1683    1.0000 </r>
       <r>   -6.0832    1.0000 </r>
       <r>   -6.0473    1.0000 </r>
       <r>   -5.9255    1.0000 </r>
       <r>   -5.8764    1.0000 </r>
       <r>   -5.7825    1.0000 </r>
       <r>   -5.6848    1.0000 </r>
       <r>   -5.5886    1.0000 </r>
       <r>   -5.5645    1.0000 </r>
       <r>   -5.4181    1.0000 </r>
       <r>   -5.2721    1.0000 </r>
       <r>   -5.1422    1.0000 </r>
       <r>   -4.8927    1.0000 </r>
       <r>   -4.8675    1.0000 </r>
       <r>   -4.8234    1.0000 </r>
       <r>   -4.7042    1.0000 </r>
       <r>   -4.5760    1.0000 </r>
       <r>   -4.4413    1.0000 </r>
       <r>   -4.2099    1.0000 </r>
       <r>   -4.1769    1.0000 </r>
       <r>   -4.1140    1.0000 </r>
       <r>   -3.8965    0.9999 </r>
       <r>   -3.8085    0.9992 </r>
       <r>   -3.6825    0.9881 </r>
       <r>   -3.6023    0.9549 </r>
       <r>   -3.4417    0.7119 </r>
       <r>   -2.9342    0.0012 </r>
       <r>   -2.7503    0.0000 </r>
       <r>   -2.5993    0.0000 </r>
       <r>   -2.5462    0.0000 </r>
       <r>   -2.3642    0.0000 </r>
       <r>   -2.2468    0.0000 </r>
       <r>   -2.0894    0.0000 </r>
       <r>   -1.9353    0.0000 </r>
       <r>   -1.8412    0.0000 </r>
       <r>   -1.7308    0.0000 </r>
       <r>   -1.6316    0.0000 </r>
       <r>   -1.5633    0.0000 </r>
       <r>   -1.4733    0.0000 </r>
       <r>   -1.4501    0.0000 </r>
       <r>   -1.2975    0.0000 </r>
       <r>   -1.2337    0.0000 </r>
       <r>   -1.1600    0.0000 </r>
       <r>   -1.0483    0.0000 </r>
       <r>   -1.0300    0.0000 </r>
       <r>   -0.9976    0.0000 </r>
       <r>   -0.9460    0.0000 </r>
       <r>   -0.8534    0.0000 </r>
       <r>   -0.7786    0.0000 </r>
       <r>   -0.7159    0.0000 </r>
       <r>   -0.4362    0.0000 </r>
       <r>   -0.3734    0.0000 </r>
       <r>   -0.1934    0.0000 </r>
       <r>   -0.0639    0.0000 </r>
       <r>    0.0764    0.0000 </r>
       <r>    0.3029    0.0000 </r>
       <r>    0.5311    0.0000 </r>
       <r>    0.6581    0.0000 </r>
       <r>    0.8451    0.0000 </r>
       <r>    0.9346    0.0000 </r>
       <r>    1.1015    0.0000 </r>
       <r>    1.2900    0.0000 </r>
       <r>    1.4757    0.0000 </r>
       <r>    2.2088    0.0000 </r>
       <r>    2.2669    0.0000 </r>
       <r>    2.3822    0.0000 </r>
      </set>
     </set>
    </set>
   </array>
  </eigenvalues>
  <separator name="orbital magnetization" >
   <v name="MAGDIPOLOUT">      0.00000000      0.00000000      0.00000000</v>
  </separator>
 </calculation>
 <structure name="finalpos" >
  <crystal>
   <varray name="basis" >
    <v>       8.33807002       4.81450607       0.00000000 </v>
    <v>      -8.33608271       4.81106534       0.00000000 </v>
    <v>       0.00000000       0.00000000      30.00000000 </v>
   </varray>
   <i name="volume">   2407.47361666 </i>
   <varray name="rec_basis" >
    <v>       0.05995163       0.10387756       0.00000000 </v>
    <v>      -0.05999450       0.10390232       0.00000000 </v>
    <v>       0.00000000       0.00000000       0.03333333 </v>
   </varray>
  </crystal>
  <varray name="positions" >
   <v>       0.30308763       0.66791491      -0.00007514 </v>
   <v>       0.70190189       0.35043499      -0.00011849 </v>
   <v>       0.01804485      -0.01746710       0.00025198 </v>
   <v>       0.31235995      -0.01482760       0.00054899 </v>
   <v>       0.00597877       0.66652060       0.00003009 </v>
   <v>       0.99367792       0.34851596      -0.00051155 </v>
   <v>       0.29792986       0.30213202       0.00004545 </v>
   <v>       0.66012359       0.02985906      -0.00022539 </v>
   <v>       0.70320357       0.66634251       0.00002369 </v>
   <v>       0.09417953       0.20473397       0.94881526 </v>
   <v>       0.21227795       0.10325978       0.05555088 </v>
   <v>       0.11575316       0.55736040       0.94481183 </v>
   <v>       0.22301165       0.44969684       0.05057071 </v>
   <v>       0.10858240       0.88486079       0.94515906 </v>
   <v>       0.22484550       0.77599754       0.05525454 </v>
   <v>       0.45113618       0.22756068       0.95473199 </v>
   <v>       0.55582088       0.12842708       0.05134730 </v>
   <v>       0.44260780       0.55562753       0.95793742 </v>
   <v>       0.55709958       0.44058886       0.04708367 </v>
   <v>       0.43960734       0.88374182       0.94897974 </v>
   <v>       0.55374963       0.77755344       0.04218512 </v>
   <v>       0.77578051       0.22984008       0.94454603 </v>
   <v>       0.88966796       0.10539854       0.04495051 </v>
   <v>       0.78365905       0.54900937       0.94505735 </v>
   <v>       0.89029765       0.44838603       0.05492878 </v>
   <v>       0.78291745       0.89276033       0.95311271 </v>
   <v>       0.90091223       0.78398599       0.05500737 </v>
  </varray>
 </structure>
</modeling>
