unknown system                          
           1
     8.853396    5.103592    0.000000
    -8.855986    5.108049    0.000000
     0.000000    0.000000   30.000000
   V    Mo   W    S 
   3   3   3  18
Direct configuration=     1
   1.00000000  0.33333334  0.00000000
   0.00000000  0.00000000  0.00000000
   0.66666669  0.33333334  0.00000000
   0.00000000  0.66666669  0.00000000
   0.33333334  0.00000000  0.00000000
   0.66666669  0.66666669  0.00000000
   0.33333334  0.33333334  0.00000000
   0.33333334  0.66666669  0.00000000
   0.66666669  0.00000000  0.00000000
   0.11068511  0.22244981  0.95539999
   0.22244981  0.11068511  0.04460000
   0.11068511  0.55578315  0.95539999
   0.22244981  0.44401845  0.04460000
   0.11068511  0.88911647  0.95539999
   0.22244981  0.77735180  0.04460000
   0.44401845  0.22244981  0.95539999
   0.55578315  0.11068511  0.04460000
   0.44401845  0.55578315  0.95539999
   0.55578315  0.44401845  0.04460000
   0.44401845  0.88911647  0.95539999
   0.55578315  0.77735180  0.04460000
   0.77735180  0.22244981  0.95539999
   0.88911647  0.11068511  0.04460000
   0.77735180  0.55578315  0.95539999
   0.88911647  0.44401845  0.04460000
   0.77735180  0.88911647  0.95539999
   0.88911647  0.77735180  0.04460000
unknown system                          
           1
     8.665470    4.997446    0.000000
    -8.668026    5.001846    0.000000
     0.000000    0.000000   30.000000
   V    Mo   W    S 
   3   3   3  18
Direct configuration=     2
   0.99963460  0.33411340  0.00002357
   0.00010010 -0.00197125 -0.00016332
   0.66707035  0.33463351  0.00018749
  -0.00034636  0.66782497  0.00003212
   0.33201694 -0.00141983 -0.00014965
   0.66805757  0.66661639  0.00011338
   0.33434526  0.33267454 -0.00009015
   0.33312708  0.66821383 -0.00003326
   0.66589329 -0.00076376  0.00005149
   0.10751084  0.22054064  0.95313619
   0.21808537  0.10982938  0.04803480
   0.10985981  0.55147902  0.95196281
   0.21850979  0.44269304  0.04806096
   0.10860349  0.89134709  0.95192443
   0.22255868  0.77711585  0.04926478
   0.44828517  0.22472106  0.95193315
   0.55824601  0.11519604  0.04803835
   0.44346098  0.55502667  0.95082043
   0.55703890  0.44145291  0.04808925
   0.44466259  0.88832364  0.95065317
   0.55500509  0.77795499  0.04929275
   0.77919732  0.22561510  0.95313383
   0.89223507  0.11251776  0.04683479
   0.77554955  0.55098705  0.95194087
   0.88668258  0.43982180  0.04688253
   0.78190527  0.89159593  0.95192061
   0.89091908  0.78207468  0.04810454
unknown system                          
           1
     8.485513    4.899195    0.000000
    -8.486650    4.901140    0.000000
     0.000000    0.000000   30.000000
   V    Mo   W    S 
   3   3   3  18
Direct configuration=     3
   0.99963618  0.33437791  0.00003253
   0.00010826 -0.00261182 -0.00017994
   0.66712034  0.33510455  0.00021000
  -0.00017366  0.66842511  0.00003067
   0.33162912 -0.00220840 -0.00012998
   0.66826838  0.66656804  0.00008918
   0.33483106  0.33272511 -0.00014009
   0.33334998  0.66904998 -0.00003436
   0.66514062 -0.00150200  0.00010736
   0.10768617  0.22058367  0.95324204
   0.21807401  0.10999893  0.04799996
   0.10999613  0.55149586  0.95198632
   0.21868338  0.44274692  0.04796624
   0.10850898  0.89140606  0.95180308
   0.22266536  0.77698026  0.04934272
   0.44828011  0.22490405  0.95195205
   0.55844501  0.11517441  0.04797713
   0.44322033  0.55492589  0.95088419
   0.55688016  0.44128061  0.04815323
   0.44475712  0.88822575  0.95056683
   0.55490053  0.77804308  0.04931078
   0.77911744  0.22543133  0.95322190
   0.89205429  0.11243681  0.04670489
   0.77548450  0.55083519  0.95191402
   0.88660102  0.43975607  0.04686117
   0.78193059  0.89182124  0.95193717
   0.89101905  0.78223985  0.04819083
unknown system                          
           1
     8.267765    4.771546    0.000000
    -8.274268    4.782782    0.000000
     0.000000    0.000000   30.000000
   V    Mo   W    S 
   3   3   3  18
Direct configuration=     4
   1.00000034  0.33550072  0.00005116
   0.00023599 -0.00496917 -0.00016357
   0.66692816  0.33696035  0.00021010
   0.00099588  0.67091241  0.00000379
   0.33033222 -0.00567049 -0.00001681
   0.66840134  0.66611751 -0.00002687
   0.33688355  0.33341637 -0.00026457
   0.33467407  0.67265435 -0.00003429
   0.66143082 -0.00501714  0.00026673
   0.10677808  0.21998306  0.95232567
   0.21697361  0.10953109  0.04928423
   0.10932428  0.55050347  0.95064545
   0.21800018  0.44229066  0.04903112
   0.10780810  0.89195217  0.94986937
   0.22252145  0.77681136  0.05127156
   0.44946823  0.22535625  0.95058966
   0.55903846  0.11622305  0.04918142
   0.44300870  0.55496508  0.94955064
   0.55746696  0.44071305  0.04989259
   0.44477063  0.88831750  0.94854223
   0.55482108  0.77783024  0.05102531
   0.77951961  0.22619964  0.95226276
   0.89295305  0.11289352  0.04751401
   0.77499353  0.54953476  0.95040242
   0.88601519  0.43893442  0.04808027
   0.78310179  0.89263394  0.95054921
   0.89176915  0.78363626  0.04995633
unknown system                          
           1
     8.258053    4.767595    0.000000
    -8.270356    4.788886    0.000000
     0.000000    0.000000   30.000000
   V    Mo   W    S 
   3   3   3  18
Direct configuration=     5
   1.00072223  0.33744922  0.00006811
   0.00064967 -0.00906740  0.00003767
   0.66686209  0.34139736  0.00003449
   0.00363586  0.67568080 -0.00006537
   0.32785912 -0.01348373  0.00010914
   0.66826106  0.66485776 -0.00016796
   0.34088295  0.33501632 -0.00034688
   0.33742201  0.68041813 -0.00001049
   0.65378031 -0.01198481  0.00038167
   0.10599030  0.21911925  0.95107816
   0.21617255  0.10878635  0.05080493
   0.10877810  0.55027651  0.94885223
   0.21782238  0.44245289  0.05030369
   0.10734258  0.89237135  0.94699258
   0.22163163  0.77643561  0.05416874
   0.45068376  0.22489628  0.94890643
   0.55900925  0.11696937  0.05074795
   0.44302161  0.55549680  0.94783728
   0.55862360  0.44061498  0.05242821
   0.44448518  0.88870038  0.94540949
   0.55460652  0.77678930  0.05354222
   0.77941388  0.22645381  0.95116149
   0.89329240  0.11272897  0.04841029
   0.77516136  0.54872498  0.94830977
   0.88560643  0.43905626  0.04990544
   0.78410909  0.89318473  0.94871789
   0.89238854  0.78487298  0.05238273
unknown system                          
           1
     8.255887    4.765349    0.000000
    -8.269739    4.789317    0.000000
     0.000000    0.000000   30.000000
   V    Mo   W    S 
   3   3   3  18
Direct configuration=     6
   1.00085477  0.33797532  0.00007612
   0.00079033 -0.01009282  0.00002016
   0.66774605  0.34393722  0.00001861
   0.00414343  0.67625606 -0.00002533
   0.32733093 -0.01552113  0.00001302
   0.66797071  0.66415797 -0.00012203
   0.34209557  0.33596591 -0.00037586
   0.33774004  0.68192608  0.00013385
   0.65184862 -0.01367406  0.00034821
   0.10638639  0.21902054  0.95117164
   0.21691073  0.10858313  0.05071038
   0.10935774  0.55132171  0.94878038
   0.21871912  0.44340985  0.05020157
   0.10770706  0.89228342  0.94670420
   0.22107230  0.77596024  0.05460458
   0.45037943  0.22399366  0.94902275
   0.55833354  0.11628487  0.05062429
   0.44290466  0.55602635  0.94782995
   0.55899312  0.44104846  0.05271758
   0.44413032  0.88881261  0.94479729
   0.55428069  0.77601952  0.05386408
   0.77873792  0.22580385  0.95133507
   0.89233448  0.11184796  0.04820774
   0.77585041  0.54955944  0.94809098
   0.88573678  0.43986937  0.04998678
   0.78364721  0.89288802  0.94869843
   0.89221212  0.78455088  0.05256545
unknown system                          
           1
     8.258459    4.766425    0.000000
    -8.275606    4.796101    0.000000
     0.000000    0.000000   30.000000
   V    Mo   W    S 
   3   3   3  18
Direct configuration=     7
   1.00096654  0.33868413  0.00002408
   0.00105515 -0.01144034  0.00002861
   0.66926856  0.34754444 -0.00002999
   0.00475478  0.67694162  0.00000737
   0.32629854 -0.01856572 -0.00002335
   0.66757218  0.66312628 -0.00008062
   0.34386212  0.33746802 -0.00044831
   0.33823066  0.68415542  0.00019339
   0.64905521 -0.01627852  0.00032349
   0.10682300  0.21895052  0.95141932
   0.21771781  0.10849355  0.05044411
   0.10993277  0.55223546  0.94878892
   0.21953268  0.44426245  0.05007886
   0.10792604  0.89204738  0.94644948
   0.22050398  0.77554799  0.05499190
   0.45028236  0.22325360  0.94930772
   0.55769663  0.11578147  0.05031086
   0.44272866  0.55653407  0.94791094
   0.55938493  0.44151101  0.05302764
   0.44365679  0.88854444  0.94429340
   0.55398725  0.77534230  0.05410758
   0.77805977  0.22523677  0.95166536
   0.89136861  0.11097388  0.04783806
   0.77649724  0.55042160  0.94788134
   0.88582024  0.44059939  0.05005908
   0.78318382  0.89250253  0.94875185
   0.89204813  0.78434071  0.05267879
unknown system                          
           1
     8.258948    4.765434    0.000000
    -8.281162    4.803882    0.000000
     0.000000    0.000000   30.000000
   V    Mo   W    S 
   3   3   3  18
Direct configuration=     8
   1.00102753  0.33913507  0.00000440
   0.00118548 -0.01221038  0.00003276
   0.67026918  0.34958607 -0.00003965
   0.00494410  0.67715271  0.00003602
   0.32564430 -0.02010112 -0.00006258
   0.66738129  0.66254669 -0.00006712
   0.34490688  0.33846930 -0.00047849
   0.33831716  0.68497970  0.00028261
   0.64773748 -0.01762798  0.00031043
   0.10702341  0.21894372  0.95156936
   0.21807361  0.10845660  0.05029125
   0.11016713  0.55257814  0.94876998
   0.21981008  0.44455844  0.05002146
   0.10800131  0.89194100  0.94631173
   0.22018605  0.77525109  0.05520044
   0.45034042  0.22297350  0.94949053
   0.55744941  0.11565903  0.05010886
   0.44265212  0.55682411  0.94792538
   0.55957184  0.44170720  0.05320123
   0.44341847  0.88844507  0.94401605
   0.55379452  0.77496373  0.05423129
   0.77775549  0.22504038  0.95184976
   0.89094354  0.11058599  0.04761574
   0.77679023  0.55085907  0.94774205
   0.88583534  0.44084615  0.05011763
   0.78301001  0.89237891  0.94877722
   0.89197808  0.78427226  0.05274157
unknown system                          
           1
     8.260641    4.766605    0.000000
    -8.282418    4.804296    0.000000
     0.000000    0.000000   30.000000
   V    Mo   W    S 
   3   3   3  18
Direct configuration=     9
   1.00116221  0.34012899 -0.00005161
   0.00136515 -0.01368097  0.00003762
   0.67214976  0.35302496 -0.00003630
   0.00511132  0.67731361  0.00007867
   0.32439213 -0.02258639 -0.00013302
   0.66710492  0.66156843 -0.00006086
   0.34683246  0.34051760 -0.00054791
   0.33825837  0.68595390  0.00040638
   0.64570608 -0.01988340  0.00027840
   0.10740029  0.21900883  0.95189805
   0.21862483  0.10848181  0.04996569
   0.11048727  0.55299400  0.94877106
   0.22009260  0.44484770  0.04993361
   0.10804281  0.89170452  0.94613622
   0.21964144  0.77473851  0.05547427
   0.45054462  0.22266069  0.94989641
   0.55713093  0.11557342  0.04966127
   0.44255448  0.55728443  0.94797296
   0.55985366  0.44203672  0.05344780
   0.44297628  0.88815650  0.94369694
   0.55348926  0.77439379  0.05437071
   0.77726733  0.22477047  0.95221597
   0.89031469  0.11003516  0.04717655
   0.77722750  0.55158599  0.94752695
   0.88585812  0.44115608  0.05022061
   0.78276280  0.89224624  0.94885633
   0.89186315  0.78418287  0.05280715
unknown system                          
           1
     8.261900    4.767319    0.000000
    -8.283573    4.804831    0.000000
     0.000000    0.000000   30.000000
   V    Mo   W    S 
   3   3   3  18
Direct configuration=    10
   1.00116141  0.34006158 -0.00004366
   0.00132345 -0.01352833  0.00003663
   0.67193104  0.35256151 -0.00003103
   0.00505859  0.67724879  0.00007574
   0.32453704 -0.02222623 -0.00012545
   0.66715497  0.66170977 -0.00006291
   0.34660502  0.34032516 -0.00053636
   0.33821105  0.68571078  0.00040017
   0.64602387 -0.01957667  0.00028213
   0.10734890  0.21900658  0.95186183
   0.21853876  0.10848500  0.05000318
   0.11042468  0.55290965  0.94876138
   0.22001554  0.44476798  0.04995452
   0.10802247  0.89173116  0.94615797
   0.21970533  0.77479240  0.05543478
   0.45053827  0.22271751  0.94985106
   0.55719125  0.11561839  0.04971091
   0.44258248  0.55723551  0.94795431
   0.55981789  0.44199444  0.05341780
   0.44302692  0.88818913  0.94374289
   0.55352604  0.77446457  0.05435019
   0.77733464  0.22481985  0.95216964
   0.89041899  0.11012562  0.04722671
   0.77716740  0.55149543  0.94754847
   0.88585690  0.44109755  0.05021632
   0.78281402  0.89228143  0.94884254
   0.89187752  0.78419589  0.05280018
unknown system                          
           1
     8.267858    4.770156    0.000000
    -8.291000    4.810209    0.000000
     0.000000    0.000000   30.000000
   V    Mo   W    S 
   3   3   3  18
Direct configuration=    11
   1.00118610  0.34012499 -0.00004546
   0.00130978 -0.01361518  0.00003691
   0.67197140  0.35261435 -0.00002958
   0.00504144  0.67725724  0.00007538
   0.32447681 -0.02227509 -0.00012578
   0.66716612  0.66171222 -0.00006428
   0.34666298  0.34041953 -0.00053981
   0.33819530  0.68567728  0.00039999
   0.64601116 -0.01962829  0.00028252
   0.10736219  0.21900395  0.95187712
   0.21853746  0.10849169  0.04998603
   0.11042663  0.55291578  0.94876226
   0.22000884  0.44476164  0.04995919
   0.10800962  0.89171973  0.94616120
   0.21969588  0.77478213  0.05543116
   0.45054832  0.22272322  0.94986934
   0.55719351  0.11562312  0.04969012
   0.44259123  0.55725073  0.94795438
   0.55982451  0.44200613  0.05341975
   0.44300937  0.88816526  0.94375249
   0.55351695  0.77445807  0.05434501
   0.77731402  0.22481089  0.95218062
   0.89041467  0.11011327  0.04721039
   0.77717473  0.55151022  0.94754641
   0.88586327  0.44110434  0.05022144
   0.78282025  0.89228655  0.94884742
   0.89188190  0.78420071  0.05279568
unknown system                          
           1
     8.264545    4.767746    0.000000
    -8.289567    4.811051    0.000000
     0.000000    0.000000   30.000000
   V    Mo   W    S 
   3   3   3  18
Direct configuration=    12
   1.00137515  0.34091986 -0.00007834
   0.00128797 -0.01462318  0.00003924
   0.67289827  0.35415134 -0.00001256
   0.00501672  0.67728382  0.00009438
   0.32373775 -0.02342726 -0.00015276
   0.66711141  0.66134504 -0.00006852
   0.34771530  0.34175291 -0.00057859
   0.33803350  0.68579112  0.00045374
   0.64518828 -0.02073881  0.00026862
   0.10757240  0.21903433  0.95207750
   0.21874569  0.10854645  0.04978530
   0.11052823  0.55306897  0.94874475
   0.22003777  0.44478698  0.04996644
   0.10795406  0.89156175  0.94609108
   0.21942315  0.77452878  0.05552289
   0.45069042  0.22262617  0.95010965
   0.55709224  0.11564973  0.04942161
   0.44262002  0.55751323  0.94794680
   0.55997541  0.44220135  0.05353423
   0.44273925  0.88792870  0.94367098
   0.55336712  0.77420105  0.05438420
   0.77703391  0.22467275  0.95237053
   0.89017509  0.10987478  0.04696313
   0.77738294  0.55187090  0.94743960
   0.88590408  0.44125021  0.05030426
   0.78276786  0.89227519  0.94888362
   0.89184045  0.78416828  0.05281813
unknown system                          
           1
     8.264331    4.766898    0.000000
    -8.291438    4.813812    0.000000
     0.000000    0.000000   30.000000
   V    Mo   W    S 
   3   3   3  18
Direct configuration=    13
   1.00146338  0.34138335 -0.00009798
   0.00129940 -0.01512374  0.00003904
   0.67348280  0.35516799 -0.00000142
   0.00507804  0.67725756  0.00011381
   0.32340372 -0.02418036 -0.00017393
   0.66701030  0.66104153 -0.00006823
   0.34835077  0.34252005 -0.00059493
   0.33795073  0.68598989  0.00050332
   0.64455497 -0.02144693  0.00025449
   0.10770233  0.21908527  0.95218848
   0.21892367  0.10857872  0.04968565
   0.11059151  0.55316215  0.94872216
   0.22007493  0.44480611  0.04995640
   0.10796479  0.89147635  0.94601734
   0.21923775  0.77435895  0.05560472
   0.45074860  0.22252416  0.95023705
   0.55699657  0.11564266  0.04928412
   0.44262689  0.55766882  0.94793407
   0.56006597  0.44231841  0.05361544
   0.44258716  0.88783189  0.94357232
   0.55328045  0.77401385  0.05443595
   0.77689858  0.22459105  0.95248614
   0.89000394  0.10974217  0.04681959
   0.77751974  0.55210499  0.94736449
   0.88591510  0.44134141  0.05035161
   0.78270300  0.89225283  0.94888917
   0.89177933  0.78410533  0.05286104
unknown system                          
           1
     8.261986    4.765996    0.000000
    -8.287816    4.810701    0.000000
     0.000000    0.000000   30.000000
   V    Mo   W    S 
   3   3   3  18
Direct configuration=    14
   1.00177053  0.34242767 -0.00012739
   0.00118766 -0.01624577  0.00003780
   0.67436457  0.35653057  0.00002312
   0.00508871  0.67724449  0.00013640
   0.32272933 -0.02527801 -0.00020820
   0.66698018  0.66077656 -0.00008004
   0.34938208  0.34401302 -0.00062759
   0.33768673  0.68591400  0.00057174
   0.64375787 -0.02254890  0.00023519
   0.10793025  0.21915878  0.95241269
   0.21913518  0.10865991  0.04947391
   0.11064666  0.55327142  0.94867894
   0.22004156  0.44473942  0.04998221
   0.10791164  0.89131157  0.94593025
   0.21895066  0.77407975  0.05569516
   0.45084837  0.22242097  0.95048640
   0.55689052  0.11565781  0.04902069
   0.44271364  0.55795037  0.94789637
   0.56020412  0.44253157  0.05373241
   0.44230528  0.88759005  0.94349245
   0.55312657  0.77373278  0.05448476
   0.77665752  0.22444816  0.95268648
   0.88979507  0.10955320  0.04654846
   0.77773497  0.55248489  0.94725492
   0.88598599  0.44148610  0.05044826
   0.78267222  0.89226794  0.94890584
   0.89171656  0.78403613  0.05290866
unknown system                          
           1
     8.271756    4.770520    0.000000
    -8.300816    4.820813    0.000000
     0.000000    0.000000   30.000000
   V    Mo   W    S 
   3   3   3  18
Direct configuration=    15
   1.00124213  0.34104362 -0.00011449
   0.00147090 -0.01491486  0.00004403
   0.67366958  0.35558318 -0.00001111
   0.00508398  0.67722386  0.00011511
   0.32335885 -0.02436706 -0.00017546
   0.66689869  0.66076360 -0.00006461
   0.34849038  0.34238472 -0.00061081
   0.33805150  0.68634478  0.00051389
   0.64435446 -0.02155246  0.00025449
   0.10773851  0.21911102  0.95217994
   0.21900847  0.10855905  0.04969878
   0.11066683  0.55322395  0.94875940
   0.22016631  0.44491807  0.04989442
   0.10800984  0.89147135  0.94601402
   0.21919815  0.77433658  0.05563199
   0.45082401  0.22250764  0.95024767
   0.55696242  0.11564196  0.04925299
   0.44253161  0.55764311  0.94798451
   0.56008876  0.44231934  0.05363842
   0.44258141  0.88787626  0.94352632
   0.55326643  0.77398455  0.05444352
   0.77685461  0.22460868  0.95250766
   0.88990424  0.10967546  0.04682450
   0.77755087  0.55216222  0.94734265
   0.88586836  0.44135813  0.05033625
   0.78261386  0.89220083  0.94891618
   0.89175928  0.78410689  0.05284962
unknown system                          
           1
     8.270211    4.769407    0.000000
    -8.299850    4.820702    0.000000
     0.000000    0.000000   30.000000
   V    Mo   W    S 
   3   3   3  18
Direct configuration=    16
   1.00194701  0.34336336 -0.00015513
   0.00111816 -0.01717528  0.00003502
   0.67525367  0.35792687  0.00004699
   0.00503020  0.67708979  0.00015298
   0.32213551 -0.02624754 -0.00024934
   0.66698725  0.66042215 -0.00008909
   0.35038821  0.34533097 -0.00064920
   0.33737557  0.68583617  0.00063726
   0.64302683 -0.02353951  0.00021031
   0.10810526  0.21921842  0.95259450
   0.21935792  0.10870349  0.04931170
   0.11070724  0.55336525  0.94861678
   0.21999475  0.44469290  0.05001120
   0.10787016  0.89115568  0.94582738
   0.21865181  0.77380683  0.05583009
   0.45101126  0.22229582  0.95069424
   0.55681249  0.11576462  0.04880160
   0.44277731  0.55825235  0.94783506
   0.56038693  0.44272281  0.05387261
   0.44202562  0.88736655  0.94336095
   0.55299942  0.77344867  0.05456427
   0.77641856  0.22435031  0.95285975
   0.88959688  0.10939254  0.04631769
   0.77794818  0.55284017  0.94713116
   0.88601757  0.44160916  0.05055329
   0.78263116  0.89226420  0.94890480
   0.89163953  0.78395769  0.05297305
unknown system                          
           1
     8.268250    4.767445    0.000000
    -8.299805    4.822053    0.000000
     0.000000    0.000000   30.000000
   V    Mo   W    S 
   3   3   3  18
Direct configuration=    17
   1.00199043  0.34374213 -0.00016411
   0.00108828 -0.01746863  0.00003158
   0.67556472  0.35844684  0.00006059
   0.00497962  0.67697525  0.00016086
   0.32194871 -0.02660339 -0.00026036
   0.66700817  0.66024269 -0.00009476
   0.35077771  0.34580215 -0.00066015
   0.33723824  0.68582105  0.00066295
   0.64276369 -0.02388218  0.00020410
   0.10818047  0.21925844  0.95267357
   0.21943876  0.10872561  0.04924451
   0.11072616  0.55340002  0.94860259
   0.21997043  0.44465678  0.05000877
   0.10785686  0.89108836  0.94580829
   0.21856332  0.77372295  0.05584917
   0.45107795  0.22228394  0.95078490
   0.55679994  0.11580562  0.04870708
   0.44281608  0.55835161  0.94782905
   0.56046176  0.44278290  0.05389860
   0.44192428  0.88726932  0.94334348
   0.55295391  0.77337037  0.05456378
   0.77633160  0.22432389  0.95293355
   0.88952664  0.10934934  0.04622680
   0.77800663  0.55293954  0.94710909
   0.88601112  0.44164713  0.05057643
   0.78260303  0.89225911  0.94891711
   0.89160595  0.78390360  0.05298242
unknown system                          
           1
     8.268412    4.767440    0.000000
    -8.299807    4.821769    0.000000
     0.000000    0.000000   30.000000
   V    Mo   W    S 
   3   3   3  18
Direct configuration=    18
   1.00261775  0.34571962 -0.00018675
   0.00070090 -0.01913563  0.00001780
   0.67653679  0.35995697  0.00010548
   0.00491161  0.67679690  0.00018985
   0.32120433 -0.02792397 -0.00030556
   0.66710045  0.65999255 -0.00011969
   0.35217332  0.34804396 -0.00069537
   0.33668722  0.68534525  0.00074642
   0.64183394 -0.02527115  0.00017658
   0.10847694  0.21937799  0.95300603
   0.21969056  0.10886895  0.04894061
   0.11073716  0.55351096  0.94847739
   0.21981960  0.44442296  0.05011449
   0.10777703  0.89084054  0.94569427
   0.21822636  0.77338157  0.05593712
   0.45116693  0.22218181  0.95113433
   0.55670444  0.11585746  0.04837345
   0.44307522  0.55878609  0.94772234
   0.56068482  0.44306893  0.05403070
   0.44151396  0.88683981  0.94328344
   0.55275212  0.77302291  0.05460678
   0.77602355  0.22411726  0.95320603
   0.88932603  0.10919770  0.04584001
   0.77825084  0.55335027  0.94700003
   0.88609839  0.44182299  0.05073125
   0.78261417  0.89231480  0.94890303
   0.89151004  0.78372696  0.05306985
unknown system                          
           1
     8.264622    4.766581    0.000000
    -8.293606    4.816749    0.000000
     0.000000    0.000000   30.000000
   V    Mo   W    S 
   3   3   3  18
Direct configuration=    19
   1.00244602  0.34528013 -0.00018800
   0.00082721 -0.01884472  0.00002413
   0.67641569  0.35972232  0.00009685
   0.00493592  0.67687654  0.00018395
   0.32127808 -0.02770173 -0.00029520
   0.66711542  0.66004639 -0.00011492
   0.35191195  0.34755784 -0.00069717
   0.33678291  0.68549078  0.00073360
   0.64198587 -0.02501821  0.00018638
   0.10841595  0.21934328  0.95294472
   0.21963178  0.10882404  0.04900012
   0.11073956  0.55347582  0.94851784
   0.21984967  0.44448139  0.05007517
   0.10777567  0.89089400  0.94572688
   0.21827737  0.77344665  0.05592157
   0.45117399  0.22219880  0.95106649
   0.55672515  0.11585981  0.04842755
   0.44299568  0.55868326  0.94776315
   0.56063875  0.44301251  0.05400580
   0.44159414  0.88693718  0.94329389
   0.55279496  0.77308715  0.05459403
   0.77607679  0.22416970  0.95315454
   0.88936052  0.10921113  0.04591018
   0.77821591  0.55329451  0.94701486
   0.88608643  0.44178747  0.05069553
   0.78262095  0.89230168  0.94892061
   0.89154209  0.78379674  0.05303736
unknown system                          
           1
     8.263880    4.767215    0.000000
    -8.292953    4.817550    0.000000
     0.000000    0.000000   30.000000
   V    Mo   W    S 
   3   3   3  18
Direct configuration=    20
   0.99996813  0.33893069 -0.00022283
   0.00302542 -0.01524813  0.00012729
   0.67524543  0.35632746 -0.00004074
   0.00602326  0.67868671  0.00010446
   0.32199890 -0.02505197 -0.00014980
   0.66724723  0.66127510 -0.00007732
   0.34845084  0.34097155 -0.00079793
   0.33808265  0.68823565  0.00057029
   0.64334544 -0.02210400  0.00036354
   0.10753345  0.21868576  0.95215215
   0.21879873  0.10810796  0.04984839
   0.11071921  0.55289506  0.94911652
   0.22025122  0.44522451  0.04939490
   0.10756821  0.89165881  0.94602208
   0.21865093  0.77418739  0.05584304
   0.45124434  0.22218318  0.95019433
   0.55674472  0.11578609  0.04904478
   0.44172033  0.55728053  0.94845600
   0.55986761  0.44235460  0.05369136
   0.44244746  0.88832220  0.94344211
   0.55333224  0.77368716  0.05447019
   0.77679093  0.22482241  0.95242784
   0.88982070  0.10912801  0.04673695
   0.77808869  0.55312943  0.94708569
   0.88630448  0.44151550  0.05025928
   0.78294931  0.89226887  0.94926956
   0.89199459  0.78495393  0.05266778
unknown system                          
           1
     8.267112    4.770069    0.000000
    -8.299850    4.826764    0.000000
     0.000000    0.000000   30.000000
   V    Mo   W    S 
   3   3   3  18
Direct configuration=    21
   0.99764340  0.33382192 -0.00021211
   0.00485970 -0.01219984  0.00018804
   0.67463951  0.35476966 -0.00012440
   0.00641862  0.67951709  0.00004733
   0.32259004 -0.02302352 -0.00007151
   0.66716676  0.66149938 -0.00004425
   0.34629806  0.33593786 -0.00079511
   0.33921362  0.69034022  0.00051230
   0.64435598 -0.02000518  0.00045088
   0.10698907  0.21820607  0.95156073
   0.21837381  0.10770246  0.05048813
   0.11084835  0.55272867  0.94952310
   0.22064844  0.44583576  0.04888016
   0.10760109  0.89216822  0.94610849
   0.21891862  0.77469214  0.05583733
   0.45142049  0.22224653  0.94961084
   0.55676147  0.11581630  0.04944088
   0.44081136  0.55649836  0.94891749
   0.55945034  0.44190410  0.05338123
   0.44299305  0.88933260  0.94349905
   0.55355445  0.77409050  0.05440683
   0.77716129  0.22518486  0.95190539
   0.88997077  0.10893944  0.04733767
   0.77795701  0.55294192  0.94723017
   0.88639702  0.44141899  0.04992813
   0.78298699  0.89234287  0.94949114
   0.89218515  0.78550708  0.05250198
unknown system                          
           1
     8.271025    4.771494    0.000000
    -8.303706    4.828080    0.000000
     0.000000    0.000000   30.000000
   V    Mo   W    S 
   3   3   3  18
Direct configuration=    22
   0.99717156  0.33556198 -0.00013076
   0.00473148 -0.01350872 -0.00003308
   0.67656369  0.35863430  0.00006429
   0.00559853  0.67861057  0.00009420
   0.32149865 -0.02508212 -0.00022874
   0.66705179  0.66000240 -0.00014162
   0.34875188  0.33922590 -0.00063938
   0.33866682  0.68954499  0.00070441
   0.64308777 -0.02217911  0.00025264
   0.10774574  0.21849630  0.95214355
   0.21924148  0.10830454  0.05002020
   0.11117826  0.55337233  0.94932427
   0.22057965  0.44537808  0.04892236
   0.10777438  0.89157985  0.94579108
   0.21850757  0.77415969  0.05597671
   0.45175242  0.22228798  0.95023878
   0.55680444  0.11619814  0.04881405
   0.44137095  0.55757932  0.94865289
   0.56019739  0.44237325  0.05363802
   0.44211075  0.88844964  0.94331191
   0.55305292  0.77358117  0.05452283
   0.77648043  0.22471352  0.95237537
   0.88943015  0.10871820  0.04678929
   0.77833495  0.55348399  0.94713282
   0.88629914  0.44183839  0.05017223
   0.78258411  0.89246868  0.94942168
   0.89164756  0.78442120  0.05280989
unknown system                          
           1
     8.276390    4.772775    0.000000
    -8.313084    4.836292    0.000000
     0.000000    0.000000   30.000000
   V    Mo   W    S 
   3   3   3  18
Direct configuration=    23
   0.99550976  0.33365370 -0.00016645
   0.00565154 -0.01287205 -0.00002087
   0.67714629  0.35943668  0.00008677
   0.00562946  0.67884086  0.00010091
   0.32114667 -0.02515713 -0.00022567
   0.66691164  0.65951540 -0.00009640
   0.34906310  0.33844465 -0.00066405
   0.33900639  0.69058016  0.00071180
   0.64275891 -0.02233132  0.00026831
   0.10784534  0.21843440  0.95211629
   0.21931052  0.10821478  0.05013611
   0.11133869  0.55340154  0.94950789
   0.22067789  0.44550747  0.04869731
   0.10776441  0.89151399  0.94571383
   0.21837087  0.77419620  0.05601668
   0.45218628  0.22238082  0.95024118
   0.55684740  0.11642990  0.04865635
   0.44109640  0.55749295  0.94882571
   0.56037369  0.44249915  0.05367533
   0.44190301  0.88845999  0.94328090
   0.55306446  0.77356887  0.05449764
   0.77627643  0.22478835  0.95230135
   0.88927532  0.10840713  0.04684652
   0.77852627  0.55373498  0.94705219
   0.88641635  0.44205615  0.05018699
   0.78249726  0.89251515  0.94950184
   0.89162010  0.78450164  0.05275146
unknown system                          
           1
     8.284505    4.777672    0.000000
    -8.322795    4.843955    0.000000
     0.000000    0.000000   30.000000
   V    Mo   W    S 
   3   3   3  18
Direct configuration=    24
   0.99274336  0.33187229 -0.00022338
   0.00668054 -0.01312363 -0.00007997
   0.67880046  0.36201732  0.00018854
   0.00545084  0.67886024  0.00009901
   0.32007694 -0.02630259 -0.00030171
   0.66666927  0.65833592 -0.00013367
   0.35103204  0.33960778 -0.00064670
   0.33896799  0.69135163  0.00086224
   0.64177975 -0.02356304  0.00019074
   0.10839829  0.21862673  0.95239352
   0.21970499  0.10825219  0.05004977
   0.11159382  0.55351273  0.94971590
   0.22060226  0.44543281  0.04840017
   0.10769877  0.89112686  0.94553118
   0.21789134  0.77391463  0.05613251
   0.45307562  0.22255492  0.95052467
   0.55698687  0.11698222  0.04811404
   0.44106205  0.55783348  0.94893941
   0.56094109  0.44299458  0.05394983
   0.44120052  0.88809831  0.94313475