<?xml version="1.0" encoding="ISO-8859-1"?>
<modeling>
 <generator>
  <i name="program" type="string">vasp </i>
  <i name="version" type="string">5.4.1  </i>
  <i name="subversion" type="string">05Feb16 (build Jul 05 2020 17:13:04) complex                          parallel </i>
  <i name="platform" type="string">IFC91_ompi </i>
  <i name="date" type="string">2024 07 30 </i>
  <i name="time" type="string">22:10:11 </i>
 </generator>
 <incar>
  <i type="int" name="ISTART">     0</i>
  <i type="string" name="PREC">normal</i>
  <i type="string" name="ALGO"> Normal</i>
  <i type="int" name="ISPIN">     1</i>
  <i type="int" name="ICHARG">     2</i>
  <i type="int" name="IBRION">     1</i>
  <i type="int" name="NSW">   100</i>
  <i type="int" name="ISIF">     3</i>
  <i type="int" name="ISYM">     0</i>
  <i name="SYMPREC">      0.00000001</i>
  <i name="POTIM">      0.50000000</i>
  <i type="logical" name="LREAL"> F  </i>
  <i type="logical" name="LPLANE"> F  </i>
  <i type="int" name="ISMEAR">     0</i>
  <i type="logical" name="LWAVE"> F  </i>
  <i type="logical" name="LCHARG"> F  </i>
  <v type="int" name="KPOINT_BSE">    -1     0     0     0</v>
 </incar>
 <kpoints>
  <generation param="Gamma">
   <v type="int" name="divisions">       8        8        1 </v>
   <v name="usershift">      0.00000000       0.00000000       0.00000000 </v>
   <v name="genvec1">      0.12500000       0.00000000       0.00000000 </v>
   <v name="genvec2">     -0.00000000       0.12500000       0.00000000 </v>
   <v name="genvec3">      0.00000000       0.00000000       1.00000000 </v>
   <v name="shift">      0.00000000       0.00000000       0.00000000 </v>
  </generation>
  <varray name="kpointlist" >
   <v>       0.00000000       0.00000000       0.00000000 </v>
   <v>       0.12500000       0.00000000       0.00000000 </v>
   <v>       0.25000000       0.00000000       0.00000000 </v>
   <v>       0.37500000       0.00000000       0.00000000 </v>
   <v>       0.50000000       0.00000000       0.00000000 </v>
   <v>       0.00000000       0.12500000       0.00000000 </v>
   <v>       0.12500000       0.12500000       0.00000000 </v>
   <v>       0.25000000       0.12500000       0.00000000 </v>
   <v>       0.37500000       0.12500000       0.00000000 </v>
   <v>       0.50000000       0.12500000       0.00000000 </v>
   <v>      -0.37500000       0.12500000       0.00000000 </v>
   <v>      -0.25000000       0.12500000       0.00000000 </v>
   <v>      -0.12500000       0.12500000       0.00000000 </v>
   <v>       0.00000000       0.25000000       0.00000000 </v>
   <v>       0.12500000       0.25000000       0.00000000 </v>
   <v>       0.25000000       0.25000000       0.00000000 </v>
   <v>       0.37500000       0.25000000       0.00000000 </v>
   <v>       0.50000000       0.25000000       0.00000000 </v>
   <v>      -0.37500000       0.25000000       0.00000000 </v>
   <v>      -0.25000000       0.25000000       0.00000000 </v>
   <v>      -0.12500000       0.25000000       0.00000000 </v>
   <v>      -0.00000000       0.37500000       0.00000000 </v>
   <v>       0.12500000       0.37500000       0.00000000 </v>
   <v>       0.25000000       0.37500000       0.00000000 </v>
   <v>       0.37500000       0.37500000       0.00000000 </v>
   <v>       0.50000000       0.37500000       0.00000000 </v>
   <v>      -0.37500000       0.37500000       0.00000000 </v>
   <v>      -0.25000000       0.37500000       0.00000000 </v>
   <v>      -0.12500000       0.37500000       0.00000000 </v>
   <v>       0.00000000       0.50000000       0.00000000 </v>
   <v>       0.12500000       0.50000000       0.00000000 </v>
   <v>       0.25000000       0.50000000       0.00000000 </v>
   <v>       0.37500000       0.50000000       0.00000000 </v>
   <v>       0.50000000       0.50000000       0.00000000 </v>
  </varray>
  <varray name="weights" >
   <v>       0.01562500 </v>
   <v>       0.03125000 </v>
   <v>       0.03125000 </v>
   <v>       0.03125000 </v>
   <v>       0.01562500 </v>
   <v>       0.03125000 </v>
   <v>       0.03125000 </v>
   <v>       0.03125000 </v>
   <v>       0.03125000 </v>
   <v>       0.03125000 </v>
   <v>       0.03125000 </v>
   <v>       0.03125000 </v>
   <v>       0.03125000 </v>
   <v>       0.03125000 </v>
   <v>       0.03125000 </v>
   <v>       0.03125000 </v>
   <v>       0.03125000 </v>
   <v>       0.03125000 </v>
   <v>       0.03125000 </v>
   <v>       0.03125000 </v>
   <v>       0.03125000 </v>
   <v>       0.03125000 </v>
   <v>       0.03125000 </v>
   <v>       0.03125000 </v>
   <v>       0.03125000 </v>
   <v>       0.03125000 </v>
   <v>       0.03125000 </v>
   <v>       0.03125000 </v>
   <v>       0.03125000 </v>
   <v>       0.01562500 </v>
   <v>       0.03125000 </v>
   <v>       0.03125000 </v>
   <v>       0.03125000 </v>
   <v>       0.01562500 </v>
  </varray>
 </kpoints>
 <parameters>
  <separator name="general" >
   <i type="string" name="SYSTEM">unknown system</i>
   <i type="logical" name="LCOMPAT"> F  </i>
  </separator>
  <separator name="electronic" >
   <i type="string" name="PREC">normal</i>
   <i name="ENMAX">    280.00000000</i>
   <i name="ENAUG">    373.43800000</i>
   <i name="EDIFF">      0.00010000</i>
   <i type="int" name="IALGO">    38</i>
   <i type="int" name="IWAVPR">    11</i>
   <i type="int" name="NBANDS">   120</i>
   <i name="NELECT">    159.00000000</i>
   <i type="int" name="TURBO">     0</i>
   <i type="int" name="IRESTART">     0</i>
   <i type="int" name="NREBOOT">     0</i>
   <i type="int" name="NMIN">     0</i>
   <i name="EREF">      0.00000000</i>
   <separator name="electronic smearing" >
    <i type="int" name="ISMEAR">     0</i>
    <i name="SIGMA">      0.20000000</i>
    <i name="KSPACING">      0.50000000</i>
    <i type="logical" name="KGAMMA"> T  </i>
   </separator>
   <separator name="electronic projectors" >
    <i type="logical" name="LREAL"> F  </i>
    <v name="ROPT">      0.00000000      0.00000000      0.00000000      0.00000000</v>
    <i type="int" name="LMAXPAW">  -100</i>
    <i type="int" name="LMAXMIX">     2</i>
    <i type="logical" name="NLSPLINE"> F  </i>
   </separator>
   <separator name="electronic startup" >
    <i type="int" name="ISTART">     0</i>
    <i type="int" name="ICHARG">     2</i>
    <i type="int" name="INIWAV">     1</i>
   </separator>
   <separator name="electronic spin" >
    <i type="int" name="ISPIN">     1</i>
    <i type="logical" name="LNONCOLLINEAR"> F  </i>
    <v name="MAGMOM">      1.00000000      1.00000000      1.00000000      1.00000000      1.00000000      1.00000000      1.00000000      1.00000000      1.00000000      1.00000000      1.00000000      1.00000000      1.00000000      1.00000000      1.00000000      1.00000000      1.00000000      1.00000000      1.00000000      1.00000000
      1.00000000      1.00000000      1.00000000      1.00000000      1.00000000      1.00000000      1.00000000</v>
    <i name="NUPDOWN">     -1.00000000</i>
    <i type="logical" name="LSORBIT"> F  </i>
    <v name="SAXIS">      0.00000000      0.00000000      1.00000000</v>
    <i type="logical" name="LSPIRAL"> F  </i>
    <v name="QSPIRAL">      0.00000000      0.00000000      0.00000000</v>
    <i type="logical" name="LZEROZ"> F  </i>
   </separator>
   <separator name="electronic exchange-correlation" >
    <i type="logical" name="LASPH"> F  </i>
    <i type="logical" name="LMETAGGA"> F  </i>
   </separator>
   <separator name="electronic convergence" >
    <i type="int" name="NELM">    60</i>
    <i type="int" name="NELMDL">    -5</i>
    <i type="int" name="NELMIN">     2</i>
    <i name="ENINI">    280.00000000</i>
    <separator name="electronic convergence detail" >
     <i type="logical" name="LDIAG"> T  </i>
     <i type="logical" name="LSUBROT"> F  </i>
     <i name="WEIMIN">      0.00100000</i>
     <i name="EBREAK">      0.00000021</i>
     <i name="DEPER">      0.30000000</i>
     <i type="int" name="NRMM">     4</i>
     <i name="TIME">      0.40000000</i>
    </separator>
   </separator>
   <separator name="electronic mixer" >
    <i name="AMIX">      0.40000000</i>
    <i name="BMIX">      1.00000000</i>
    <i name="AMIN">      0.10000000</i>
    <i name="AMIX_MAG">      1.60000000</i>
    <i name="BMIX_MAG">      1.00000000</i>
    <separator name="electronic mixer details" >
     <i type="int" name="IMIX">     4</i>
     <i type="logical" name="MIXFIRST"> F  </i>
     <i type="int" name="MAXMIX">   -45</i>
     <i name="WC">    100.00000000</i>
     <i type="int" name="INIMIX">     1</i>
     <i type="int" name="MIXPRE">     1</i>
     <i type="int" name="MREMOVE">     5</i>
    </separator>
   </separator>
   <separator name="electronic dipolcorrection" >
    <i type="logical" name="LDIPOL"> F  </i>
    <i type="logical" name="LMONO"> F  </i>
    <i type="int" name="IDIPOL">     0</i>
    <i name="EPSILON">      1.00000000</i>
    <v name="DIPOL">   -100.00000000   -100.00000000   -100.00000000</v>
    <i name="EFIELD">      0.00000000</i>
   </separator>
  </separator>
  <separator name="grids" >
   <i type="int" name="NGX">    42</i>
   <i type="int" name="NGY">    42</i>
   <i type="int" name="NGZ">   126</i>
   <i type="int" name="NGXF">    84</i>
   <i type="int" name="NGYF">    84</i>
   <i type="int" name="NGZF">   252</i>
   <i type="logical" name="ADDGRID"> F  </i>
  </separator>
  <separator name="ionic" >
   <i type="int" name="NSW">   100</i>
   <i type="int" name="IBRION">     1</i>
   <i type="int" name="ISIF">     3</i>
   <i name="PSTRESS">      0.00000000</i>
   <i name="EDIFFG">      0.00100000</i>
   <i type="int" name="NFREE">     0</i>
   <i name="POTIM">      0.50000000</i>
   <i name="SMASS">     -3.00000000</i>
   <i name="SCALEE">      1.00000000</i>
  </separator>
  <separator name="ionic md" >
   <i name="TEBEG">      0.00010000</i>
   <i name="TEEND">      0.00010000</i>
   <i type="int" name="NBLOCK">     1</i>
   <i type="int" name="KBLOCK">   100</i>
   <i type="int" name="NPACO">   256</i>
   <i name="APACO">     16.00000000</i>
  </separator>
  <separator name="symmetry" >
   <i type="int" name="ISYM">     0</i>
   <i name="SYMPREC">      0.00000001</i>
  </separator>
  <separator name="dos" >
   <i type="logical" name="LORBIT"> F  </i>
   <v name="RWIGS">     -1.00000000     -1.00000000     -1.00000000     -1.00000000</v>
   <i type="int" name="NEDOS">   301</i>
   <i name="EMIN">     10.00000000</i>
   <i name="EMAX">    -10.00000000</i>
   <i name="EFERMI">      0.00000000</i>
  </separator>
  <separator name="writing" >
   <i type="int" name="NWRITE">     2</i>
   <i type="logical" name="LWAVE"> F  </i>
   <i type="logical" name="LCHARG"> F  </i>
   <i type="logical" name="LPARD"> F  </i>
   <i type="logical" name="LVTOT"> F  </i>
   <i type="logical" name="LVHAR"> F  </i>
   <i type="logical" name="LELF"> F  </i>
   <i type="logical" name="LOPTICS"> F  </i>
   <v name="STM">      0.00000000      0.00000000      0.00000000      0.00000000      0.00000000      0.00000000      0.00000000</v>
  </separator>
  <separator name="performance" >
   <i type="int" name="NPAR">    40</i>
   <i type="int" name="NSIM">     4</i>
   <i type="int" name="NBLK">    -1</i>
   <i type="logical" name="LPLANE"> F  </i>
   <i type="logical" name="LSCALAPACK"> T  </i>
   <i type="logical" name="LSCAAWARE"> F  </i>
   <i type="logical" name="LSCALU"> F  </i>
   <i type="logical" name="LASYNC"> F  </i>
   <i type="logical" name="LORBITALREAL"> F  </i>
  </separator>
  <separator name="miscellaneous" >
   <i type="int" name="IDIOT">     3</i>
   <i type="logical" name="LMUSIC"> F  </i>
   <v name="POMASS">     50.94100000     95.94000000    183.85000000     32.06600000</v>
   <v name="DARWINR">      0.00000000      0.00000000      0.00000000      0.00000000</v>
   <v name="DARWINV">      1.00000000      1.00000000      1.00000000      1.00000000</v>
   <i type="logical" name="LCORR"> T  </i>
  </separator>
  <i type="logical" name="GGA_COMPAT"> T  </i>
  <i type="logical" name="LBERRY"> F  </i>
  <i type="int" name="ICORELEVEL">     0</i>
  <i type="logical" name="LDAU"> F  </i>
  <i type="int" name="I_CONSTRAINED_M">     0</i>
  <separator name="electronic exchange-correlation" >
   <i type="string" name="GGA">--</i>
   <i type="int" name="VOSKOWN">     0</i>
   <i type="logical" name="LHFCALC"> F  </i>
   <i type="string" name="PRECFOCK"></i>
   <i type="logical" name="LSYMGRAD"> F  </i>
   <i type="logical" name="LHFONE"> F  </i>
   <i type="logical" name="LRHFCALC"> F  </i>
   <i type="logical" name="LTHOMAS"> F  </i>
   <i type="logical" name="LMODELHF"> F  </i>
   <i name="ENCUT4O">     -1.00000000</i>
   <i type="int" name="EXXOEP">     0</i>
   <i type="int" name="FOURORBIT">     0</i>
   <i name="AEXX">      0.00000000</i>
   <i name="HFALPHA">      0.00000000</i>
   <i name="MCALPHA">      0.00000000</i>
   <i name="ALDAX">      1.00000000</i>
   <i name="AGGAX">      1.00000000</i>
   <i name="ALDAC">      1.00000000</i>
   <i name="AGGAC">      1.00000000</i>
   <i type="int" name="NKREDX">     1</i>
   <i type="int" name="NKREDY">     1</i>
   <i type="int" name="NKREDZ">     1</i>
   <i type="logical" name="SHIFTRED"> F  </i>
   <i type="logical" name="ODDONLY"> F  </i>
   <i type="logical" name="EVENONLY"> F  </i>
   <i type="int" name="LMAXFOCK">     0</i>
   <i type="int" name="NMAXFOCKAE">     0</i>
   <i type="logical" name="LFOCKAEDFT"> F  </i>
   <i name="HFSCREEN">      0.00000000</i>
   <i name="HFSCREENC">      0.00000000</i>
   <i type="int" name="NBANDSGWLOW">     0</i>
  </separator>
  <separator name="vdW DFT" >
   <i type="logical" name="LUSE_VDW"> F  </i>
   <i name="Zab_VDW">     -0.84910000</i>
   <i name="PARAM1">      0.12340000</i>
   <i name="PARAM2">      1.00000000</i>
   <i name="PARAM3">      0.00000000</i>
  </separator>
  <separator name="model GW" >
   <i type="int" name="MODEL_GW">     0</i>
   <i name="MODEL_EPS0">     58.26239943</i>
   <i name="MODEL_ALPHA">      1.00000000</i>
  </separator>
  <separator name="linear response parameters" >
   <i type="logical" name="LEPSILON"> F  </i>
   <i type="logical" name="LRPA"> F  </i>
   <i type="logical" name="LNABLA"> F  </i>
   <i type="logical" name="LVEL"> F  </i>
   <i type="int" name="KINTER">     0</i>
   <i name="CSHIFT">      0.10000000</i>
   <i name="OMEGAMAX">     -1.00000000</i>
   <i name="DEG_THRESHOLD">      0.00200000</i>
  </separator>
  <separator name="orbital magnetization" >
   <i type="logical" name="NUCIND"> F  </i>
   <v name="MAGPOS">      0.00000000      0.00000000      0.00000000</v>
   <i type="logical" name="LNICSALL"> T  </i>
   <i type="logical" name="ORBITALMAG"> F  </i>
   <i type="logical" name="LMAGBLOCH"> F  </i>
   <i type="logical" name="LCHIMAG"> F  </i>
   <i type="logical" name="LGAUGE"> T  </i>
   <i type="int" name="MAGATOM">     0</i>
   <v name="MAGDIPOL">      0.00000000      0.00000000      0.00000000</v>
   <v name="AVECCONST">      0.00000000      0.00000000      0.00000000</v>
  </separator>
  <separator name="response functions" >
   <i type="logical" name="LADDER"> F  </i>
   <i type="logical" name="LFXC"> F  </i>
   <i type="logical" name="LHARTREE"> T  </i>
   <i type="int" name="IBSE">     0</i>
   <v type="int" name="KPOINT">    -1     0     0     0</v>
   <i type="logical" name="LTCTE"> F  </i>
   <i type="logical" name="LTETE"> F  </i>
   <i type="logical" name="LTRIPLET"> F  </i>
   <i type="logical" name="LFXCEPS"> F  </i>
   <i type="logical" name="LFXHEG"> F  </i>
   <i type="int" name="NATURALO">     0</i>
   <i type="logical" name="L2ORDER"> F  </i>
   <i type="logical" name="LUSEW"> F  </i>
   <i name="ENCUTGW">     -2.00000000</i>
   <i name="ENCUTGWSOFT">     -2.00000000</i>
   <i name="ENCUTLF">     -1.00000000</i>
   <i type="int" name="LMAXMP2">    -1</i>
   <i name="SCISSOR">      0.00000000</i>
   <i type="int" name="NOMEGA">     0</i>
   <i type="int" name="NOMEGAR">     0</i>
   <i type="int" name="NBANDSGW">    -1</i>
   <i type="int" name="NBANDSO">    -1</i>
   <i type="int" name="NBANDSV">    -1</i>
   <i type="int" name="NELM">     1</i>
   <i type="int" name="NELMHF">     1</i>
   <i type="int" name="DIM">     3</i>
   <i type="int" name="ANTIRES">     0</i>
   <i name="OMEGAMAX">    -30.00000000</i>
   <i name="OMEGAMIN">    -30.00000000</i>
   <i name="OMEGATL">   -200.00000000</i>
   <i type="int" name="OMEGAGRID">     0</i>
   <i name="CSHIFT">     -0.10000000</i>
   <i type="logical" name="SELFENERGY"> F  </i>
   <i type="logical" name="LSPECTRAL"> F  </i>
   <i type="logical" name="LSPECTRALGW"> F  </i>
   <i type="logical" name="LSINGLES"> F  </i>
   <i type="logical" name="LFERMIGW"> F  </i>
   <i type="logical" name="ODDONLYGW"> F  </i>
   <i type="logical" name="EVENONLYGW"> F  </i>
   <i type="int" name="NKREDLFX">     1</i>
   <i type="int" name="NKREDLFY">     1</i>
   <i type="int" name="NKREDLFZ">     1</i>
   <i type="int" name="MAXMEM">  1800</i>
   <i type="int" name="TELESCOPE">     0</i>
   <i type="int" name="TAUPAR">     1</i>
   <i type="int" name="OMEGAPAR">    -1</i>
   <i name="LAMBDA">      1.00000000</i>
  </separator>
  <separator name="External order field" >
   <i name="OFIELD_KAPPA">      0.00000000</i>
   <v name="OFIELD_K">      0.00000000      0.00000000      0.00000000</v>
   <i name="OFIELD_Q6_NEAR">      0.00000000</i>
   <i name="OFIELD_Q6_FAR">      0.00000000</i>
   <i name="OFIELD_A">      0.00000000</i>
  </separator>
 </parameters>
 <atominfo>
  <atoms>      27 </atoms>
  <types>       4 </types>
  <array name="atoms" >
   <dimension dim="1">ion</dimension>
   <field type="string">element</field>
   <field type="int">atomtype</field>
   <set>
    <rc><c>V </c><c>   1</c></rc>
    <rc><c>V </c><c>   1</c></rc>
    <rc><c>V </c><c>   1</c></rc>
    <rc><c>Mo</c><c>   2</c></rc>
    <rc><c>Mo</c><c>   2</c></rc>
    <rc><c>Mo</c><c>   2</c></rc>
    <rc><c>W </c><c>   3</c></rc>
    <rc><c>W </c><c>   3</c></rc>
    <rc><c>W </c><c>   3</c></rc>
    <rc><c>S </c><c>   4</c></rc>
    <rc><c>S </c><c>   4</c></rc>
    <rc><c>S </c><c>   4</c></rc>
    <rc><c>S </c><c>   4</c></rc>
    <rc><c>S </c><c>   4</c></rc>
    <rc><c>S </c><c>   4</c></rc>
    <rc><c>S </c><c>   4</c></rc>
    <rc><c>S </c><c>   4</c></rc>
    <rc><c>S </c><c>   4</c></rc>
    <rc><c>S </c><c>   4</c></rc>
    <rc><c>S </c><c>   4</c></rc>
    <rc><c>S </c><c>   4</c></rc>
    <rc><c>S </c><c>   4</c></rc>
    <rc><c>S </c><c>   4</c></rc>
    <rc><c>S </c><c>   4</c></rc>
    <rc><c>S </c><c>   4</c></rc>
    <rc><c>S </c><c>   4</c></rc>
    <rc><c>S </c><c>   4</c></rc>
   </set>
  </array>
  <array name="atomtypes" >
   <dimension dim="1">type</dimension>
   <field type="int">atomspertype</field>
   <field type="string">element</field>
   <field>mass</field>
   <field>valence</field>
   <field type="string">pseudopotential</field>
   <set>
    <rc><c>   3</c><c>V </c><c>     50.94100000</c><c>      5.00000000</c><c> PAW_PBE V 08Apr2002                    </c></rc>
    <rc><c>   3</c><c>Mo</c><c>     95.94000000</c><c>      6.00000000</c><c> PAW_PBE Mo 08Apr2002                   </c></rc>
    <rc><c>   3</c><c>W </c><c>    183.85000000</c><c>      6.00000000</c><c> PAW_PBE W 08Apr2002                    </c></rc>
    <rc><c>  18</c><c>S </c><c>     32.06600000</c><c>      6.00000000</c><c>  PAW_PBE S 17Jan2003                   </c></rc>
   </set>
  </array>
 </atominfo>
 <structure name="initialpos" >
  <crystal>
   <varray name="basis" >
    <v>       8.66999996       5.03999989       0.00000000 </v>
    <v>      -8.66999982       5.04000013       0.00000000 </v>
    <v>       0.00000000       0.00000000      30.00000000 </v>
   </varray>
   <i name="volume">   2621.80797419 </i>
   <varray name="rec_basis" >
    <v>       0.05767013       0.09920635       0.00000000 </v>
    <v>      -0.05767013       0.09920635       0.00000000 </v>
    <v>       0.00000000       0.00000000       0.03333333 </v>
   </varray>
  </crystal>
  <varray name="positions" >
   <v>       1.00000000       0.33333334       0.00000000 </v>
   <v>       0.00000000       0.66666669       0.00000000 </v>
   <v>       0.66666669       0.66666669       0.00000000 </v>
   <v>       0.33333334       0.33333334       0.00000000 </v>
   <v>       0.66666669       0.00000000       0.00000000 </v>
   <v>       0.33333334       0.00000000       0.00000000 </v>
   <v>       0.00000000       0.00000000       0.00000000 </v>
   <v>       0.33333334       0.66666669       0.00000000 </v>
   <v>       0.66666669       0.33333334       0.00000000 </v>
   <v>       0.11068511       0.22244981       0.95539999 </v>
   <v>       0.22244981       0.11068511       0.04460000 </v>
   <v>       0.11068511       0.55578315       0.95539999 </v>
   <v>       0.22244981       0.44401845       0.04460000 </v>
   <v>       0.11068511       0.88911647       0.95539999 </v>
   <v>       0.22244981       0.77735180       0.04460000 </v>
   <v>       0.44401845       0.22244981       0.95539999 </v>
   <v>       0.55578315       0.11068511       0.04460000 </v>
   <v>       0.44401845       0.55578315       0.95539999 </v>
   <v>       0.55578315       0.44401845       0.04460000 </v>
   <v>       0.44401845       0.88911647       0.95539999 </v>
   <v>       0.55578315       0.77735180       0.04460000 </v>
   <v>       0.77735180       0.22244981       0.95539999 </v>
   <v>       0.88911647       0.11068511       0.04460000 </v>
   <v>       0.77735180       0.55578315       0.95539999 </v>
   <v>       0.88911647       0.44401845       0.04460000 </v>
   <v>       0.77735180       0.88911647       0.95539999 </v>
   <v>       0.88911647       0.77735180       0.04460000 </v>
  </varray>
 </structure>
 <calculation>
  <scstep>
   <time name="dav">   29.95   30.03</time>
   <time name="total">   30.01   30.09</time>
   <energy>
    <i name="alphaZ">     81.65567618 </i>
    <i name="ewald">  41890.25209520 </i>
    <i name="hartreedc"> -47722.87085556 </i>
    <i name="XCdc">   -242.93151236 </i>
    <i name="pawpsdc">   3467.42045192 </i>
    <i name="pawaedc">  -2871.19716117 </i>
    <i name="eentropy">     -0.52661066 </i>
    <i name="bandstr">   -239.48113329 </i>
    <i name="atom">   6761.44252427 </i>
    <i name="e_fr_energy">   1123.76347453 </i>
    <i name="e_wo_entrp">   1124.29008519 </i>
    <i name="e_0_energy">   1124.02677986 </i>
   </energy>
  </scstep>
  <scstep>
   <time name="dav">   39.60   39.69</time>
   <time name="total">   39.60   39.71</time>
   <energy>
    <i name="e_fr_energy">     -6.29117344 </i>
    <i name="e_wo_entrp">     -6.07788350 </i>
    <i name="e_0_energy">     -6.18452847 </i>
   </energy>
  </scstep>
  <scstep>
   <time name="dav">   38.09   38.18</time>
   <time name="total">   38.10   38.20</time>
   <energy>
    <i name="e_fr_energy">   -200.00728953 </i>
    <i name="e_wo_entrp">   -199.74132146 </i>
    <i name="e_0_energy">   -199.87430550 </i>
   </energy>
  </scstep>
  <scstep>
   <time name="dav">   41.43   41.53</time>
   <time name="total">   41.43   41.54</time>
   <energy>
    <i name="e_fr_energy">   -208.94643264 </i>
    <i name="e_wo_entrp">   -208.64698359 </i>
    <i name="e_0_energy">   -208.79670812 </i>
   </energy>
  </scstep>
  <scstep>
   <time name="dav">   40.23   40.33</time>
   <time name="total">   40.79   40.90</time>
   <energy>
    <i name="e_fr_energy">   -209.26996249 </i>
    <i name="e_wo_entrp">   -208.97394960 </i>
    <i name="e_0_energy">   -209.12195604 </i>
   </energy>
  </scstep>
  <scstep>
   <time name="dav">   42.96   43.06</time>
   <time name="total">   43.58   43.69</time>
   <energy>
    <i name="e_fr_energy">   -237.34681593 </i>
    <i name="e_wo_entrp">   -237.06163817 </i>
    <i name="e_0_energy">   -237.20422705 </i>
   </energy>
  </scstep>
  <scstep>
   <time name="dav">   45.49   45.60</time>
   <time name="total">   46.10   46.22</time>
   <energy>
    <i name="e_fr_energy">   -196.73624044 </i>
    <i name="e_wo_entrp">   -196.40668884 </i>
    <i name="e_0_energy">   -196.57146464 </i>
   </energy>
  </scstep>
  <scstep>
   <time name="dav">   40.51   40.61</time>
   <time name="total">   41.14   41.25</time>
   <energy>
    <i name="e_fr_energy">   -190.34728431 </i>
    <i name="e_wo_entrp">   -190.08171275 </i>
    <i name="e_0_energy">   -190.21449853 </i>
   </energy>
  </scstep>
  <scstep>
   <time name="dav">   41.36   41.46</time>
   <time name="total">   42.00   42.11</time>
   <energy>
    <i name="e_fr_energy">   -188.34919091 </i>
    <i name="e_wo_entrp">   -188.02523824 </i>
    <i name="e_0_energy">   -188.18721457 </i>
   </energy>
  </scstep>
  <scstep>
   <time name="dav">   45.24   45.35</time>
   <time name="total">   45.89   46.01</time>
   <energy>
    <i name="e_fr_energy">   -187.12504916 </i>
    <i name="e_wo_entrp">   -186.77744132 </i>
    <i name="e_0_energy">   -186.95124524 </i>
   </energy>
  </scstep>
  <scstep>
   <time name="dav">   41.91   42.02</time>
   <time name="total">   42.57   42.68</time>
   <energy>
    <i name="e_fr_energy">   -187.11557974 </i>
    <i name="e_wo_entrp">   -186.77513803 </i>
    <i name="e_0_energy">   -186.94535888 </i>
   </energy>
  </scstep>
  <scstep>
   <time name="dav">   41.69   41.79</time>
   <time name="total">   42.35   42.46</time>
   <energy>
    <i name="e_fr_energy">   -187.11361974 </i>
    <i name="e_wo_entrp">   -186.78037373 </i>
    <i name="e_0_energy">   -186.94699673 </i>
   </energy>
  </scstep>
  <scstep>
   <time name="dav">   44.34   44.45</time>
   <time name="total">   45.01   45.13</time>
   <energy>
    <i name="e_fr_energy">   -186.99405625 </i>
    <i name="e_wo_entrp">   -186.65889177 </i>
    <i name="e_0_energy">   -186.82647401 </i>
   </energy>
  </scstep>
  <scstep>
   <time name="dav">   43.60   43.70</time>
   <time name="total">   44.26   44.37</time>
   <energy>
    <i name="e_fr_energy">   -186.95949104 </i>
    <i name="e_wo_entrp">   -186.61649019 </i>
    <i name="e_0_energy">   -186.78799062 </i>
   </energy>
  </scstep>
  <scstep>
   <time name="dav">   40.04   40.14</time>
   <time name="total">   40.70   40.81</time>
   <energy>
    <i name="e_fr_energy">   -186.95547103 </i>
    <i name="e_wo_entrp">   -186.61240387 </i>
    <i name="e_0_energy">   -186.78393745 </i>
   </energy>
  </scstep>
  <scstep>
   <time name="dav">   44.36   44.47</time>
   <time name="total">   45.03   45.15</time>
   <energy>
    <i name="e_fr_energy">   -186.95505747 </i>
    <i name="e_wo_entrp">   -186.61372716 </i>
    <i name="e_0_energy">   -186.78439231 </i>
   </energy>
  </scstep>
  <scstep>
   <time name="dav">   43.58   43.68</time>
   <time name="total">   44.25   44.37</time>
   <energy>
    <i name="e_fr_energy">   -186.95316797 </i>
    <i name="e_wo_entrp">   -186.61200905 </i>
    <i name="e_0_energy">   -186.78258851 </i>
   </energy>
  </scstep>
  <scstep>
   <time name="dav">   36.26   36.35</time>
   <time name="total">   36.95   37.05</time>
   <energy>
    <i name="e_fr_energy">   -186.95283127 </i>
    <i name="e_wo_entrp">   -186.61117355 </i>
    <i name="e_0_energy">   -186.78200241 </i>
   </energy>
  </scstep>
  <scstep>
   <time name="dav">   34.15   34.23</time>
   <time name="total">   34.81   34.90</time>
   <energy>
    <i name="e_fr_energy">   -186.95363780 </i>
    <i name="e_wo_entrp">   -186.61236025 </i>
    <i name="e_0_energy">   -186.78299902 </i>
   </energy>
  </scstep>
  <scstep>
   <time name="dav">   30.61   30.69</time>
   <time name="total">   31.27   31.36</time>
   <energy>
    <i name="e_fr_energy">   -186.95472693 </i>
    <i name="e_wo_entrp">   -186.61325651 </i>
    <i name="e_0_energy">   -186.78399172 </i>
   </energy>
  </scstep>
  <scstep>
   <time name="dav">   25.58   25.64</time>
   <time name="total">   26.24   26.31</time>
   <energy>
    <i name="e_fr_energy">   -186.95538557 </i>
    <i name="e_wo_entrp">   -186.61397577 </i>
    <i name="e_0_energy">   -186.78468067 </i>
   </energy>
  </scstep>
  <scstep>
   <time name="dav">   28.66   28.73</time>
   <time name="total">   29.32   29.40</time>
   <energy>
    <i name="e_fr_energy">   -186.95635493 </i>
    <i name="e_wo_entrp">   -186.61506763 </i>
    <i name="e_0_energy">   -186.78571128 </i>
   </energy>
  </scstep>
  <scstep>
   <time name="dav">   27.08   27.14</time>
   <time name="total">   27.74   27.82</time>
   <energy>
    <i name="e_fr_energy">   -186.95674075 </i>
    <i name="e_wo_entrp">   -186.61542583 </i>
    <i name="e_0_energy">   -186.78608329 </i>
   </energy>
  </scstep>
  <scstep>
   <time name="dav">   24.62   24.68</time>
   <time name="total">   25.29   25.36</time>
   <energy>
    <i name="e_fr_energy">   -186.95719679 </i>
    <i name="e_wo_entrp">   -186.61581246 </i>
    <i name="e_0_energy">   -186.78650463 </i>
   </energy>
  </scstep>
  <scstep>
   <time name="dav">   25.22   25.28</time>
   <time name="total">   25.89   25.96</time>
   <energy>
    <i name="e_fr_energy">   -186.95758898 </i>
    <i name="e_wo_entrp">   -186.61620396 </i>
    <i name="e_0_energy">   -186.78689647 </i>
   </energy>
  </scstep>
  <scstep>
   <time name="dav">   27.06   27.13</time>
   <time name="total">   27.76   27.84</time>
   <energy>
    <i name="e_fr_energy">   -186.95778822 </i>
    <i name="e_wo_entrp">   -186.61641651 </i>
    <i name="e_0_energy">   -186.78710237 </i>
   </energy>
  </scstep>
  <scstep>
   <time name="dav">   27.85   27.92</time>
   <time name="total">   27.90   27.97</time>
   <energy>
    <i name="alphaZ">     81.65567618 </i>
    <i name="ewald">  41890.25209520 </i>
    <i name="hartreedc"> -47833.37613057 </i>
    <i name="XCdc">   -231.58393887 </i>
    <i name="pawpsdc">   4192.26828158 </i>
    <i name="pawaedc">  -3610.31517372 </i>
    <i name="eentropy">     -0.34136658 </i>
    <i name="bandstr">  -1436.95984949 </i>
    <i name="atom">   6761.44252427 </i>
    <i name="e_fr_energy">   -186.95788199 </i>
    <i name="e_wo_entrp">   -186.61651541 </i>
    <i name="e_0_energy">   -186.78719870 </i>
   </energy>
  </scstep>
  <structure>
   <crystal>
    <varray name="basis" >
     <v>       8.66999996       5.03999989       0.00000000 </v>
     <v>      -8.66999982       5.04000013       0.00000000 </v>
     <v>       0.00000000       0.00000000      30.00000000 </v>
    </varray>
    <i name="volume">   2621.80797419 </i>
    <varray name="rec_basis" >
     <v>       0.05767013       0.09920635       0.00000000 </v>
     <v>      -0.05767013       0.09920635       0.00000000 </v>
     <v>       0.00000000       0.00000000       0.03333333 </v>
    </varray>
   </crystal>
   <varray name="positions" >
    <v>       1.00000000       0.33333334       0.00000000 </v>
    <v>       0.00000000       0.66666669       0.00000000 </v>
    <v>       0.66666669       0.66666669       0.00000000 </v>
    <v>       0.33333334       0.33333334       0.00000000 </v>
    <v>       0.66666669       0.00000000       0.00000000 </v>
    <v>       0.33333334       0.00000000       0.00000000 </v>
    <v>       0.00000000       0.00000000       0.00000000 </v>
    <v>       0.33333334       0.66666669       0.00000000 </v>
    <v>       0.66666669       0.33333334       0.00000000 </v>
    <v>       0.11068511       0.22244981       0.95539999 </v>
    <v>       0.22244981       0.11068511       0.04460000 </v>
    <v>       0.11068511       0.55578315       0.95539999 </v>
    <v>       0.22244981       0.44401845       0.04460000 </v>
    <v>       0.11068511       0.88911647       0.95539999 </v>
    <v>       0.22244981       0.77735180       0.04460000 </v>
    <v>       0.44401845       0.22244981       0.95539999 </v>
    <v>       0.55578315       0.11068511       0.04460000 </v>
    <v>       0.44401845       0.55578315       0.95539999 </v>
    <v>       0.55578315       0.44401845       0.04460000 </v>
    <v>       0.44401845       0.88911647       0.95539999 </v>
    <v>       0.55578315       0.77735180       0.04460000 </v>
    <v>       0.77735180       0.22244981       0.95539999 </v>
    <v>       0.88911647       0.11068511       0.04460000 </v>
    <v>       0.77735180       0.55578315       0.95539999 </v>
    <v>       0.88911647       0.44401845       0.04460000 </v>
    <v>       0.77735180       0.88911647       0.95539999 </v>
    <v>       0.88911647       0.77735180       0.04460000 </v>
   </varray>
  </structure>
  <varray name="forces" >
   <v>       0.15080833      -0.07675003      -0.07216838 </v>
   <v>       0.00001306       0.15597568      -0.00000406 </v>
   <v>      -0.15082052      -0.07679826       0.07215536 </v>
   <v>       0.26922735      -0.16183317      -0.07144295 </v>
   <v>      -0.26924293      -0.16180624       0.07143376 </v>
   <v>      -0.00001384       0.31896774      -0.00000700 </v>
   <v>       0.00795612       0.23085038      -0.00134480 </v>
   <v>      -0.00795803       0.23078512       0.00133373 </v>
   <v>       0.00000525      -0.46441888      -0.00000548 </v>
   <v>      -0.68498296      -0.13833519      -2.16240390 </v>
   <v>      -0.18715142      -0.16500715       2.88570701 </v>
   <v>      -0.22952904      -0.54591439      -1.42714943 </v>
   <v>      -0.61893700      -0.54555420       2.09866506 </v>
   <v>       0.37073647      -0.68405658      -2.14116847 </v>
   <v>      -0.37071084      -0.68405785       2.14115686 </v>
   <v>       0.18613980       0.14166391      -2.94107739 </v>
   <v>      -0.18615492       0.14166174       2.94111456 </v>
   <v>       0.36772743       0.67754111      -2.14925138 </v>
   <v>      -0.37568454       0.73333143       2.16228043 </v>
   <v>       0.18714688      -0.16502948      -2.88571312 </v>
   <v>       0.68494006      -0.13837366       2.16242441 </v>
   <v>       0.37569929       0.73338339      -2.16229360 </v>
   <v>      -0.36775130       0.67760633       2.14926546 </v>
   <v>      -0.24138727       0.52879126      -1.38694445 </v>
   <v>       0.24142920       0.52880101       1.38693898 </v>
   <v>       0.61892616      -0.54552910      -2.09868888 </v>
   <v>       0.22956921      -0.54589493       1.42718768 </v>
  </varray>
  <varray name="stress" >
   <v>       7.26525132       0.00001078      -1.55125773 </v>
   <v>       0.00001052       4.53084384      -0.00003716 </v>
   <v>      -1.55125773      -0.00003710      30.23496971 </v>
  </varray>
  <energy>
   <i name="e_fr_energy">   -186.95788199 </i>
   <i name="e_wo_entrp">   -186.78719870 </i>
   <i name="e_0_energy">     -0.34136658 </i>
  </energy>
  <time name="totalsc"> 1065.97 1068.78</time>
 </calculation>
 <calculation>
  <scstep>
   <time name="dav">   30.06   30.13</time>
   <time name="total">   30.74   30.81</time>
   <energy>
    <i name="alphaZ">     78.91178435 </i>
    <i name="ewald">  39376.46194930 </i>
    <i name="hartreedc"> -45334.08814554 </i>
    <i name="XCdc">   -239.03853345 </i>
    <i name="pawpsdc">   4192.26145186 </i>
    <i name="pawaedc">  -3610.30831182 </i>
    <i name="eentropy">     -0.27793408 </i>
    <i name="bandstr">  -1412.95652554 </i>
    <i name="atom">   6761.44252427 </i>
    <i name="e_fr_energy">   -187.59174065 </i>
    <i name="e_wo_entrp">   -187.31380657 </i>
    <i name="e_0_energy">   -187.45277361 </i>
   </energy>
  </scstep>
  <scstep>
   <time name="dav">   42.50   42.60</time>
   <time name="total">   43.17   43.28</time>
   <energy>
    <i name="e_fr_energy">   -189.62083987 </i>
    <i name="e_wo_entrp">   -189.28164587 </i>
    <i name="e_0_energy">   -189.45124287 </i>
   </energy>
  </scstep>
  <scstep>
   <time name="dav">   42.03   42.13</time>
   <time name="total">   42.72   42.83</time>
   <energy>
    <i name="e_fr_energy">   -189.37700962 </i>
    <i name="e_wo_entrp">   -189.11305854 </i>
    <i name="e_0_energy">   -189.24503408 </i>
   </energy>
  </scstep>
  <scstep>
   <time name="dav">   43.12   43.22</time>
   <time name="total">   43.79   43.91</time>
   <energy>
    <i name="e_fr_energy">   -188.84454692 </i>
    <i name="e_wo_entrp">   -188.56525713 </i>
    <i name="e_0_energy">   -188.70490203 </i>
   </energy>
  </scstep>
  <scstep>
   <time name="dav">   39.44   39.53</time>
   <time name="total">   40.12   40.22</time>
   <energy>
    <i name="e_fr_energy">   -188.84781817 </i>
    <i name="e_wo_entrp">   -188.56928626 </i>
    <i name="e_0_energy">   -188.70855222 </i>
   </energy>
  </scstep>
  <scstep>
   <time name="dav">   42.60   42.71</time>
   <time name="total">   43.27   43.38</time>
   <energy>
    <i name="e_fr_energy">   -188.90016465 </i>
    <i name="e_wo_entrp">   -188.61004395 </i>
    <i name="e_0_energy">   -188.75510430 </i>
   </energy>
  </scstep>
  <scstep>
   <time name="dav">   42.69   42.79</time>
   <time name="total">   43.36   43.48</time>
   <energy>
    <i name="e_fr_energy">   -188.76456863 </i>
    <i name="e_wo_entrp">   -188.48887969 </i>
    <i name="e_0_energy">   -188.62672416 </i>
   </energy>
  </scstep>
  <scstep>
   <time name="dav">   36.25   36.33</time>
   <time name="total">   36.91   37.01</time>
   <energy>
    <i name="e_fr_energy">   -188.74921168 </i>
    <i name="e_wo_entrp">   -188.47167585 </i>
    <i name="e_0_energy">   -188.61044377 </i>
   </energy>
  </scstep>
  <scstep>
   <time name="dav">   42.20   42.30</time>
   <time name="total">   42.87   42.98</time>
   <energy>
    <i name="e_fr_energy">   -188.74451031 </i>
    <i name="e_wo_entrp">   -188.46768527 </i>
    <i name="e_0_energy">   -188.60609779 </i>
   </energy>
  </scstep>
  <scstep>
   <time name="dav">   44.10   44.21</time>
   <time name="total">   44.78   44.89</time>
   <energy>
    <i name="e_fr_energy">   -188.74560674 </i>
    <i name="e_wo_entrp">   -188.46926159 </i>
    <i name="e_0_energy">   -188.60743417 </i>
   </energy>
  </scstep>
  <scstep>
   <time name="dav">   43.92   44.03</time>
   <time name="total">   44.60   44.71</time>
   <energy>
    <i name="e_fr_energy">   -188.74424833 </i>
    <i name="e_wo_entrp">   -188.46835766 </i>
    <i name="e_0_energy">   -188.60630299 </i>
   </energy>
  </scstep>
  <scstep>
   <time name="dav">   40.54   40.63</time>
   <time name="total">   41.21   41.32</time>
   <energy>
    <i name="e_fr_energy">   -188.74399827 </i>
    <i name="e_wo_entrp">   -188.46816149 </i>
    <i name="e_0_energy">   -188.60607988 </i>
   </energy>
  </scstep>
  <scstep>
   <time name="dav">   28.61   28.68</time>
   <time name="total">   28.65   28.73</time>
   <energy>
    <i name="alphaZ">     78.91178435 </i>
    <i name="ewald">  39376.46194930 </i>
    <i name="hartreedc"> -45344.65887601 </i>
    <i name="XCdc">   -237.96040642 </i>
    <i name="pawpsdc">   3950.37040875 </i>
    <i name="pawaedc">  -3364.89796586 </i>
    <i name="eentropy">     -0.27595688 </i>
    <i name="bandstr">  -1408.13752482 </i>
    <i name="atom">   6761.44252427 </i>
    <i name="e_fr_energy">   -188.74406331 </i>
    <i name="e_wo_entrp">   -188.46810643 </i>
    <i name="e_0_energy">   -188.60608487 </i>
   </energy>
  </scstep>
  <structure>
   <crystal>
    <varray name="basis" >
     <v>       8.85417375       5.10676801       0.00000000 </v>
     <v>      -8.85417329       5.10676771       0.00000000 </v>
     <v>       0.00000000       0.00000000      30.00000000 </v>
    </varray>
    <i name="volume">   2712.97252615 </i>
    <varray name="rec_basis" >
     <v>       0.05647054       0.09790928       0.00000000 </v>
     <v>      -0.05647055       0.09790929       0.00000000 </v>
     <v>       0.00000000       0.00000000       0.03333333 </v>
    </varray>
   </crystal>
   <varray name="positions" >
    <v>       1.00005225       0.33254645      -0.00011605 </v>
    <v>       0.00074653       0.66741315      -0.00000001 </v>
    <v>       0.66587953       0.66671874       0.00011603 </v>
    <v>       0.33330785       0.33180978      -0.00011489 </v>
    <v>       0.66514321      -0.00002532       0.00011487 </v>
    <v>       0.33485988       0.00152661      -0.00000001 </v>
    <v>       0.00112698       0.00108271      -0.00000216 </v>
    <v>       0.33441574       0.66779336       0.00000214 </v>
    <v>       0.66444400       0.33111063      -0.00000001 </v>
    <v>       0.10811731       0.22369347       0.95192265 </v>
    <v>       0.22113940       0.11041607       0.04924047 </v>
    <v>       0.10743379       0.55380901       0.95310501 </v>
    <v>       0.21811682       0.44312942       0.04797484 </v>
    <v>       0.10844268       0.88481114       0.95195680 </v>
    <v>       0.21814455       0.77510929       0.04804317 </v>
    <v>       0.44521432       0.22260994       0.95067048 </v>
    <v>       0.55594323       0.11188101       0.04932957 </v>
    <v>       0.44828423       0.55800277       0.95194380 </v>
    <v>       0.55824765       0.44857338       0.04807714 </v>
    <v>       0.44374930       0.88780597       0.95075951 </v>
    <v>       0.55702651       0.77478393       0.04807737 </v>
    <v>       0.78190701       0.22491451       0.95192283 </v>
    <v>       0.89133633       0.11495126       0.04805621 </v>
    <v>       0.77921100       0.55898551       0.95316966 </v>
    <v>       0.89231899       0.44587759       0.04683032 </v>
    <v>       0.77646286       0.88478362       0.95202511 </v>
    <v>       0.88714252       0.77410046       0.04689504 </v>
   </varray>
  </structure>
  <varray name="forces" >
   <v>       0.18042952      -0.07011015       0.05937475 </v>
   <v>      -0.00023705       0.15469586      -0.00000444 </v>
   <v>      -0.18061436      -0.07014787      -0.05922267 </v>
   <v>       0.37834790      -0.26009869       0.04408536 </v>
   <v>      -0.37781332      -0.26056046      -0.04409244 </v>
   <v>      -0.00013176       0.49563548      -0.00003144 </v>
   <v>       0.01623564       0.34262402      -0.01473774 </v>
   <v>      -0.01546182       0.34348969       0.01471223 </v>
   <v>      -0.00036827      -0.66544952       0.00001408 </v>
   <v>       0.01709460      -0.10495379      -0.10660782 </v>
   <v>      -0.04713498      -0.11691293       0.13426491 </v>
   <v>       0.06267271       0.06991020       0.12248619 </v>
   <v>      -0.08079435       0.05790331      -0.16367404 </v>
   <v>      -0.11312918      -0.04111818       0.05655920 </v>
   <v>       0.11297154      -0.04112775      -0.05659586 </v>
   <v>       0.05905386       0.10745902      -0.26651435 </v>
   <v>      -0.05911256       0.10735993       0.26636017 </v>
   <v>      -0.10691198       0.04453316       0.06383074 </v>
   <v>       0.11888621       0.05770685      -0.03665697 </v>
   <v>       0.04723753      -0.11695658      -0.13417414 </v>
   <v>      -0.01653846      -0.10505582       0.10560198 </v>
   <v>      -0.11930627       0.05710334       0.03627989 </v>
   <v>       0.10712447       0.04394403      -0.06301164 </v>
   <v>       0.06285233      -0.07839777       0.24140216 </v>
   <v>      -0.06343423      -0.07834937      -0.24111140 </v>
   <v>       0.08115315       0.05735738       0.16484186 </v>
   <v>      -0.06307085       0.06951662      -0.12337858 </v>
  </varray>
  <varray name="stress" >
   <v>     -19.90527524       0.00022291       0.00656041 </v>
   <v>       0.00022285     -19.49797321       0.00031000 </v>
   <v>       0.00656028       0.00030994      -1.72833333 </v>
  </varray>
  <energy>
   <i name="e_fr_energy">   -188.74406331 </i>
   <i name="e_wo_entrp">   -188.60608487 </i>
   <i name="e_0_energy">     -0.27595688 </i>
  </energy>
  <time name="totalsc">  586.38  587.90</time>
 </calculation>
 <calculation>
  <scstep>
   <time name="dav">   32.89   32.97</time>
   <time name="total">   33.56   33.64</time>
   <energy>
    <i name="alphaZ">     82.31909207 </i>
    <i name="ewald">  41290.21664405 </i>
    <i name="hartreedc"> -47288.63807043 </i>
    <i name="XCdc">   -233.85884357 </i>
    <i name="pawpsdc">   3949.34329546 </i>
    <i name="pawaedc">  -3363.86287808 </i>
    <i name="eentropy">     -0.23266346 </i>
    <i name="bandstr">  -1387.38784271 </i>
    <i name="atom">   6761.44252427 </i>
    <i name="e_fr_energy">   -190.65874241 </i>
    <i name="e_wo_entrp">   -190.42607895 </i>
    <i name="e_0_energy">   -190.54241068 </i>
   </energy>
  </scstep>
  <scstep>
   <time name="dav">   39.22   39.31</time>
   <time name="total">   39.86   39.97</time>
   <energy>
    <i name="e_fr_energy">   -190.58788604 </i>
    <i name="e_wo_entrp">   -190.36052843 </i>
    <i name="e_0_energy">   -190.47420723 </i>
   </energy>
  </scstep>
  <scstep>
   <time name="dav">   42.23   42.33</time>
   <time name="total">   42.88   42.99</time>
   <energy>
    <i name="e_fr_energy">   -190.15426380 </i>
    <i name="e_wo_entrp">   -189.90215183 </i>
    <i name="e_0_energy">   -190.02820782 </i>
   </energy>
  </scstep>
  <scstep>
   <time name="dav">   43.67   43.78</time>
   <time name="total">   44.33   44.44</time>
   <energy>
    <i name="e_fr_energy">   -189.93704959 </i>
    <i name="e_wo_entrp">   -189.70734445 </i>
    <i name="e_0_energy">   -189.82219702 </i>
   </energy>
  </scstep>
  <scstep>
   <time name="dav">   42.07   42.17</time>
   <time name="total">   42.72   42.82</time>
   <energy>
    <i name="e_fr_energy">   -189.89812162 </i>
    <i name="e_wo_entrp">   -189.66825485 </i>
    <i name="e_0_energy">   -189.78318824 </i>
   </energy>
  </scstep>
  <scstep>
   <time name="dav">   43.40   43.51</time>
   <time name="total">   44.07   44.19</time>
   <energy>
    <i name="e_fr_energy">   -189.84088800 </i>
    <i name="e_wo_entrp">   -189.60604290 </i>
    <i name="e_0_energy">   -189.72346545 </i>
   </energy>
  </scstep>
  <scstep>
   <time name="dav">   39.80   39.90</time>
   <time name="total">   40.45   40.55</time>
   <energy>
    <i name="e_fr_energy">   -189.83424679 </i>
    <i name="e_wo_entrp">   -189.60059881 </i>
    <i name="e_0_energy">   -189.71742280 </i>
   </energy>
  </scstep>
  <scstep>
   <time name="dav">   39.58   39.67</time>
   <time name="total">   40.24   40.34</time>
   <energy>
    <i name="e_fr_energy">   -189.83421658 </i>
    <i name="e_wo_entrp">   -189.60043582 </i>
    <i name="e_0_energy">   -189.71732620 </i>
   </energy>
  </scstep>
  <scstep>
   <time name="dav">   34.39   34.48</time>
   <time name="total">   35.06   35.15</time>
   <energy>
    <i name="e_fr_energy">   -189.83440616 </i>
    <i name="e_wo_entrp">   -189.60064336 </i>
    <i name="e_0_energy">   -189.71752476 </i>
   </energy>
  </scstep>
  <scstep>
   <time name="dav">   34.40   34.48</time>
   <time name="total">   34.44   34.53</time>
   <energy>
    <i name="alphaZ">     82.31909207 </i>
    <i name="ewald">  41290.21664405 </i>
    <i name="hartreedc"> -47261.98935607 </i>
    <i name="XCdc">   -235.24515276 </i>
    <i name="pawpsdc">   4037.67530184 </i>
    <i name="pawaedc">  -3453.38847056 </i>
    <i name="eentropy">     -0.23389328 </i>
    <i name="bandstr">  -1410.63100577 </i>
    <i name="atom">   6761.44252427 </i>
    <i name="e_fr_energy">   -189.83431621 </i>
    <i name="e_wo_entrp">   -189.60042292 </i>
    <i name="e_0_energy">   -189.71736956 </i>
   </energy>
  </scstep>
  <structure>
   <crystal>
    <varray name="basis" >
     <v>       8.66708093       5.00106906       0.00000000 </v>
     <v>      -8.66707807       5.00106457       0.00000000 </v>
     <v>       0.00000000       0.00000000      30.00000000 </v>
    </varray>
    <i name="volume">   2600.67862218 </i>
    <varray name="rec_basis" >
     <v>       0.05768953       0.09997865       0.00000000 </v>
     <v>      -0.05768959       0.09997868       0.00000000 </v>
     <v>       0.00000000       0.00000000       0.03333333 </v>
    </varray>
   </crystal>
   <varray name="positions" >
    <v>       1.00010852       0.33225779      -0.00008255 </v>
    <v>       0.00100268       0.66766975      -0.00000001 </v>
    <v>       0.66559063       0.66677513       0.00008262 </v>
    <v>       0.33323844       0.33101707      -0.00009001 </v>
    <v>       0.66435025      -0.00009601       0.00008999 </v>
    <v>       0.33568116       0.00234814      -0.00000003 </v>
    <v>       0.00171032       0.00163502      -0.00001048 </v>
    <v>       0.33497022       0.66837740       0.00001045 </v>
    <v>       0.66334081       0.33000814      -0.00000000 </v>
    <v>       0.10795971       0.22350319       0.95186250 </v>
    <v>       0.22090059       0.11026737       0.04931623 </v>
    <v>       0.10760956       0.55386496       0.95317412 </v>
    <v>       0.21813555       0.44330262       0.04788249 </v>
    <v>       0.10826640       0.88485113       0.95198871 </v>
    <v>       0.21818437       0.77493314       0.04801124 </v>
    <v>       0.44544886       0.22273158       0.95052010 </v>
    <v>       0.55606465       0.11211544       0.04947986 </v>
    <v>       0.44825584       0.55817877       0.95197982 </v>
    <v>       0.55845692       0.44855537       0.04805645 </v>
    <v>       0.44360062       0.88756698       0.95068380 </v>
    <v>       0.55683660       0.77462563       0.04813695 </v>
    <v>       0.78188760       0.22512319       0.95194330 </v>
    <v>       0.89151156       0.11492169       0.04802066 </v>
    <v>       0.77914115       0.55879551       0.95330587 </v>
    <v>       0.89212851       0.44580838       0.04669428 </v>
    <v>       0.77663549       0.88480111       0.95211812 </v>
    <v>       0.88719745       0.77427595       0.04682543 </v>
   </varray>
  </structure>
  <varray name="forces" >
   <v>       0.21190967      -0.06938085       0.07633433 </v>
   <v>      -0.00442045       0.16093358      -0.00004353 </v>
   <v>      -0.21520635      -0.07057771      -0.07722024 </v>
   <v>       0.40988842      -0.29628170       0.05431574 </v>
   <v>      -0.40341985      -0.30574938      -0.05415702 </v>
   <v>      -0.00076310       0.54708241       0.00071609 </v>
   <v>       0.02070667       0.37121438      -0.01811999 </v>
   <v>      -0.01469439       0.37988654       0.01822578 </v>
   <v>      -0.00490551      -0.71742624      -0.00000632 </v>
   <v>      -0.09012421      -0.02905532      -0.62252697 </v>
   <v>       0.00077158      -0.05661437       0.69164480 </v>
   <v>      -0.00521893      -0.05031655      -0.33049933 </v>
   <v>      -0.07208094      -0.05440581       0.30876694 </v>
   <v>       0.00627260      -0.08539005      -0.43398924 </v>
   <v>      -0.00611987      -0.08566692       0.43268835 </v>
   <v>       0.02128988       0.03805812      -0.84941179 </v>
   <v>      -0.02088795       0.03850411       0.84796763 </v>
   <v>       0.01100402       0.09216069      -0.41800465 </v>
   <v>       0.00849553       0.11714405       0.45889960 </v>
   <v>      -0.00078510      -0.05629593      -0.69266771 </v>
   <v>       0.09416488      -0.02855461       0.62203088 </v>
   <v>      -0.01019633       0.11360663      -0.45984566 </v>
   <v>      -0.00917810       0.08883394       0.41972794 </v>
   <v>      -0.00318026       0.03471684      -0.19462615 </v>
   <v>      -0.00036567       0.03465329       0.19745995 </v>
   <v>       0.07396191      -0.05732377      -0.30661267 </v>
   <v>       0.00308187      -0.05375534       0.32895325 </v>
  </varray>
  <varray name="stress" >
   <v>     -10.21524559       0.00263247      -0.01005655 </v>
   <v>       0.00263263      -9.89203128       0.00124631 </v>
   <v>      -0.01005651       0.00124638       6.53964299 </v>
  </varray>
  <energy>
   <i name="e_fr_energy">   -189.83431621 </i>
   <i name="e_wo_entrp">   -189.71736956 </i>
   <i name="e_0_energy">     -0.23389328 </i>
  </energy>
  <time name="totalsc">  458.00  459.19</time>
 </calculation>
 <calculation>
  <scstep>
   <time name="dav">   30.26   30.34</time>
   <time name="total">   30.91   30.98</time>
   <energy>
    <i name="alphaZ">     85.82068570 </i>
    <i name="ewald">  42833.84704788 </i>
    <i name="hartreedc"> -48850.21135479 </i>
    <i name="XCdc">   -232.93622180 </i>
    <i name="pawpsdc">   4037.95118325 </i>
    <i name="pawaedc">  -3453.66597168 </i>
    <i name="eentropy">     -0.19807754 </i>
    <i name="bandstr">  -1373.47865490 </i>
    <i name="atom">   6761.44252427 </i>
    <i name="e_fr_energy">   -191.42883959 </i>
    <i name="e_wo_entrp">   -191.23076205 </i>
    <i name="e_0_energy">   -191.32980082 </i>
   </energy>
  </scstep>
  <scstep>
   <time name="dav">   45.38   45.49</time>
   <time name="total">   46.02   46.14</time>
   <energy>
    <i name="e_fr_energy">   -191.21745725 </i>
    <i name="e_wo_entrp">   -191.01635145 </i>
    <i name="e_0_energy">   -191.11690435 </i>
   </energy>
  </scstep>
  <scstep>
   <time name="dav">   41.35   41.45</time>
   <time name="total">   41.98   42.08</time>
   <energy>
    <i name="e_fr_energy">   -191.44196636 </i>
    <i name="e_wo_entrp">   -191.21382482 </i>
    <i name="e_0_energy">   -191.32789559 </i>
   </energy>
  </scstep>
  <scstep>
   <time name="dav">   40.62   40.72</time>
   <time name="total">   41.26   41.37</time>
   <energy>
    <i name="e_fr_energy">   -191.04676841 </i>
    <i name="e_wo_entrp">   -190.83031891 </i>
    <i name="e_0_energy">   -190.93854366 </i>
   </energy>
  </scstep>
  <scstep>
   <time name="dav">   40.05   40.15</time>
   <time name="total">   40.70   40.81</time>
   <energy>
    <i name="e_fr_energy">   -191.03087639 </i>
    <i name="e_wo_entrp">   -190.83996780 </i>
    <i name="e_0_energy">   -190.93542209 </i>
   </energy>
  </scstep>
  <scstep>
   <time name="dav">   39.42   39.52</time>
   <time name="total">   40.07   40.18</time>
   <energy>
    <i name="e_fr_energy">   -190.84272572 </i>
    <i name="e_wo_entrp">   -190.63908069 </i>
    <i name="e_0_energy">   -190.74090321 </i>
   </energy>
  </scstep>
  <scstep>
   <time name="dav">   39.57   39.67</time>
   <time name="total">   40.23   40.33</time>
   <energy>
    <i name="e_fr_energy">   -190.83974591 </i>
    <i name="e_wo_entrp">   -190.63630415 </i>
    <i name="e_0_energy">   -190.73802503 </i>
   </energy>
  </scstep>
  <scstep>
   <time name="dav">   40.15   40.24</time>
   <time name="total">   40.80   40.90</time>
   <energy>
    <i name="e_fr_energy">   -190.83945977 </i>
    <i name="e_wo_entrp">   -190.63550270 </i>
    <i name="e_0_energy">   -190.73748124 </i>
   </energy>
  </scstep>
  <scstep>
   <time name="dav">   38.67   38.76</time>
   <time name="total">   39.31   39.42</time>
   <energy>
    <i name="e_fr_energy">   -190.83608404 </i>
    <i name="e_wo_entrp">   -190.63235831 </i>
    <i name="e_0_energy">   -190.73422118 </i>
   </energy>
  </scstep>
  <scstep>
   <time name="dav">   36.74   36.83</time>
   <time name="total">   37.39   37.49</time>
   <energy>
    <i name="e_fr_energy">   -190.83637393 </i>
    <i name="e_wo_entrp">   -190.63273835 </i>
    <i name="e_0_energy">   -190.73455614 </i>
   </energy>
  </scstep>
  <scstep>
   <time name="dav">   34.17   34.26</time>
   <time name="total">   34.82   34.91</time>
   <energy>
    <i name="e_fr_energy">   -190.83623662 </i>
    <i name="e_wo_entrp">   -190.63249848 </i>
    <i name="e_0_energy">   -190.73436755 </i>
   </energy>
  </scstep>
  <scstep>
   <time name="dav">   27.97   28.04</time>
   <time name="total">   28.02   28.09</time>
   <energy>
    <i name="alphaZ">     85.82068570 </i>
    <i name="ewald">  42833.84704788 </i>
    <i name="hartreedc"> -48821.78806790 </i>
    <i name="XCdc">   -234.28099642 </i>
    <i name="pawpsdc">   4064.03099723 </i>
    <i name="pawaedc">  -3479.92826720 </i>
    <i name="eentropy">     -0.20386620 </i>
    <i name="bandstr">  -1399.77629328 </i>
    <i name="atom">   6761.44252427 </i>
    <i name="e_fr_energy">   -190.83623592 </i>
    <i name="e_wo_entrp">   -190.63236972 </i>
    <i name="e_0_energy">   -190.73430282 </i>
   </energy>
  </scstep>
  <structure>
   <crystal>
    <varray name="basis" >
     <v>       8.48406429       4.90065609       0.00000000 </v>
     <v>      -8.48392591       4.90041672       0.00000000 </v>
     <v>       0.00000000       0.00000000      30.00000000 </v>
    </varray>
    <i name="volume">   2494.56761130 </i>
    <varray name="rec_basis" >
     <v>       0.05893306       0.10202881       0.00000000 </v>
     <v>      -0.05893594       0.10203048       0.00000000 </v>
     <v>       0.00000000       0.00000000       0.03333333 </v>
    </varray>
   </crystal>
   <varray name="positions" >
    <v>       1.00048820       0.33101143       0.00009032 </v>
    <v>       0.00200579       0.66871707      -0.00000013 </v>
    <v>       0.66431736       0.66716083      -0.00009299 </v>
    <v>       0.33281831       0.32753740       0.00003141 </v>
    <v>       0.66082049      -0.00063036      -0.00003096 </v>
    <v>       0.33923910       0.00591345       0.00000210 </v>
    <v>       0.00419251       0.00395424      -0.00005096 </v>
    <v>       0.33739298       0.67090431       0.00005126 </v>
    <v>       0.65868501       0.32540109      -0.00000003 </v>
    <v>       0.10748677       0.22399550       0.95012757 </v>
    <v>       0.22077063       0.10999208       0.05123016 </v>
    <v>       0.10687201       0.55336324       0.95209886 </v>
    <v>       0.21726207       0.44292558       0.04892943 </v>
    <v>       0.10781570       0.88400672       0.95066654 </v>
    <v>       0.21733856       0.77447902       0.04932962 </v>
    <v>       0.44553407       0.22277281       0.94825708 </v>
    <v>       0.55611218       0.11220270       0.05173878 </v>
    <v>       0.44916616       0.55866546       0.95069829 </v>
    <v>       0.55921175       0.44957070       0.04943459 </v>
    <v>       0.44332802       0.88744015       0.94876679 </v>
    <v>       0.55735328       0.77413765       0.04987129 </v>
    <v>       0.78286530       0.22585643       0.95056272 </v>
    <v>       0.89197942       0.11579526       0.04930653 </v>
    <v>       0.77953713       0.55940713       0.95252694 </v>
    <v>       0.89272229       0.44622083       0.04748127 </v>
    <v>       0.77624318       0.88389430       0.95107650 </v>
    <v>       0.88665618       0.77351941       0.04789691 </v>
   </varray>
  </structure>
  <varray name="forces" >
   <v>       0.22477643      -0.02623459       0.07770140 </v>
   <v>       0.00290428       0.11017951       0.00012166 </v>
   <v>      -0.22520900      -0.02564593      -0.07733682 </v>
   <v>       0.43006587      -0.36261930       0.02810515 </v>
   <v>      -0.43095258      -0.35871625      -0.02859475 </v>
   <v>      -0.00063546       0.55369280       0.00028234 </v>
   <v>       0.05968796       0.39922109      -0.02488640 </v>
   <v>      -0.06376985       0.39451215       0.02498929 </v>
   <v>       0.00242222      -0.66202838      -0.00038905 </v>
   <v>      -0.01446620       0.03411548      -0.46721608 </v>
   <v>       0.06343518      -0.01545863       0.52397768 </v>
   <v>       0.02741959       0.00793216      -0.23074487 </v>
   <v>       0.02710008       0.02378653       0.14782316 </v>
   <v>       0.02317964       0.05266833      -0.28410273 </v>
   <v>      -0.02219511       0.05251565       0.28275804 </v>
   <v>      -0.00154520      -0.01666965      -0.67483562 </v>
   <v>       0.00161467      -0.01646376       0.67341611 </v>
   <v>       0.02229777      -0.02985084      -0.23996759 </v>
   <v>       0.02881652      -0.00860909       0.30062660 </v>
   <v>      -0.06414922      -0.01590459      -0.52472080 </v>
   <v>       0.01298320       0.03357836       0.47457395 </v>
   <v>      -0.02813692      -0.00709831      -0.29410377 </v>
   <v>      -0.02333234      -0.02755171       0.23430446 </v>
   <v>       0.03117325      -0.06189993      -0.09686563 </v>
   <v>      -0.02934493      -0.06180538       0.09245017 </v>
   <v>      -0.02807419       0.02565475      -0.15332518 </v>
   <v>      -0.02606567       0.00869952       0.23595928 </v>
  </varray>
  <varray name="stress" >
   <v>      -5.83986801      -0.00325162       0.07508438 </v>
   <v>      -0.00325165      -5.65340882      -0.00015249 </v>
   <v>       0.07508458      -0.00015250       4.52975599 </v>
  </varray>
  <energy>
   <i name="e_fr_energy">   -190.83623592 </i>
   <i name="e_wo_entrp">   -190.73430282 </i>
   <i name="e_0_energy">     -0.20386620 </i>
  </energy>
  <time name="totalsc">  522.07  523.43</time>
 </calculation>
 <calculation>
  <scstep>
   <time name="dav">   30.23   30.31</time>
   <time name="total">   30.86   30.94</time>
   <energy>
    <i name="alphaZ">     90.17015083 </i>
    <i name="ewald">  44660.17675667 </i>
    <i name="hartreedc"> -50703.37224643 </i>
    <i name="XCdc">   -231.84505329 </i>
    <i name="pawpsdc">   4063.96462999 </i>
    <i name="pawaedc">  -3479.85801837 </i>
    <i name="eentropy">     -0.19258419 </i>
    <i name="bandstr">  -1352.68931986 </i>
    <i name="atom">   6761.44252427 </i>
    <i name="e_fr_energy">   -192.20316038 </i>
    <i name="e_wo_entrp">   -192.01057619 </i>
    <i name="e_0_energy">   -192.10686829 </i>
   </energy>
  </scstep>
  <scstep>
   <time name="dav">   38.12   38.21</time>
   <time name="total">   38.75   38.86</time>
   <energy>
    <i name="e_fr_energy">   -191.93251053 </i>
    <i name="e_wo_entrp">   -191.72020724 </i>
    <i name="e_0_energy">   -191.82635889 </i>
   </energy>
  </scstep>
  <scstep>
   <time name="dav">   42.18   42.28</time>
   <time name="total">   42.73   42.84</time>
   <energy>
    <i name="e_fr_energy">   -192.22707548 </i>
    <i name="e_wo_entrp">   -192.02403936 </i>
    <i name="e_0_energy">   -192.12555742 </i>
   </energy>
  </scstep>
  <scstep>
   <time name="dav">   41.93   42.03</time>
   <time name="total">   42.55   42.66</time>
   <energy>
    <i name="e_fr_energy">   -191.74230601 </i>
    <i name="e_wo_entrp">   -191.53293765 </i>
    <i name="e_0_energy">   -191.63762183 </i>
   </energy>
  </scstep>
  <scstep>
   <time name="dav">   39.50   39.60</time>
   <time name="total">   40.12   40.22</time>
   <energy>
    <i name="e_fr_energy">   -191.54644837 </i>
    <i name="e_wo_entrp">   -191.33996253 </i>
    <i name="e_0_energy">   -191.44320545 </i>
   </energy>
  </scstep>
  <scstep>
   <time name="dav">   43.14   43.24</time>
   <time name="total">   43.78   43.89</time>
   <energy>
    <i name="e_fr_energy">   -191.54241427 </i>
    <i name="e_wo_entrp">   -191.34678367 </i>
    <i name="e_0_energy">   -191.44459897 </i>
   </energy>
  </scstep>
  <scstep>
   <time name="dav">   42.47   42.57</time>
   <time name="total">   43.09   43.20</time>
   <energy>
    <i name="e_fr_energy">   -191.51195379 </i>
    <i name="e_wo_entrp">   -191.30714243 </i>
    <i name="e_0_energy">   -191.40954811 </i>
   </energy>
  </scstep>
  <scstep>
   <time name="dav">   41.51   41.61</time>
   <time name="total">   42.13   42.24</time>
   <energy>
    <i name="e_fr_energy">   -191.51084533 </i>
    <i name="e_wo_entrp">   -191.30687999 </i>
    <i name="e_0_energy">   -191.40886266 </i>
   </energy>
  </scstep>
  <scstep>
   <time name="dav">   40.68   40.78</time>
   <time name="total">   41.31   41.41</time>
   <energy>
    <i name="e_fr_energy">   -191.50799696 </i>
    <i name="e_wo_entrp">   -191.30455947 </i>
    <i name="e_0_energy">   -191.40627821 </i>
   </energy>
  </scstep>
  <scstep>
   <time name="dav">   39.68   39.78</time>
   <time name="total">   40.30   40.41</time>
   <energy>
    <i name="e_fr_energy">   -191.50808661 </i>
    <i name="e_wo_entrp">   -191.30452819 </i>
    <i name="e_0_energy">   -191.40630740 </i>
   </energy>
  </scstep>
  <scstep>
   <time name="dav">   37.10   37.19</time>
   <time name="total">   37.15   37.24</time>
   <energy>
    <i name="alphaZ">     90.17015083 </i>
    <i name="ewald">  44660.17675667 </i>
    <i name="hartreedc"> -50669.45109127 </i>
    <i name="XCdc">   -233.36053360 </i>
    <i name="pawpsdc">   4086.07298473 </i>
    <i name="pawaedc">  -3502.06892209 </i>
    <i name="eentropy">     -0.20372123 </i>
    <i name="bandstr">  -1384.28617768 </i>
    <i name="atom">   6761.44252427 </i>
    <i name="e_fr_energy">   -191.50802936 </i>
    <i name="e_wo_entrp">   -191.30430813 </i>
    <i name="e_0_energy">   -191.40616874 </i>
   </energy>
  </scstep>
  <structure>
   <crystal>
    <varray name="basis" >
     <v>       8.27171868       4.78386141       0.00000000 </v>
     <v>      -8.27170796       4.78384267       0.00000000 </v>
     <v>       0.00000000       0.00000000      30.00000000 </v>
    </varray>
    <i name="volume">   2374.23915737 </i>
    <varray name="rec_basis" >
     <v>       0.06044685       0.10451822       0.00000000 </v>
     <v>      -0.06044709       0.10451835       0.00000000 </v>
     <v>       0.00000000       0.00000000       0.03333333 </v>
    </varray>
   </crystal>
   <varray name="positions" >
    <v>       1.00173462       0.32897775       0.00041850 </v>
    <v>       0.00347312       0.67017148       0.00000023 </v>
    <v>       0.66227347       0.66841929      -0.00042141 </v>
    <v>       0.33145058       0.31998230       0.00016864 </v>
    <v>       0.65327562      -0.00200976      -0.00016963 </v>
    <v>       0.34619360       0.01287948       0.00000421 </v>
    <v>       0.00954124       0.00851430      -0.00015060 </v>
    <v>       0.34193004       0.67625092       0.00015145 </v>
    <v>       0.65028690       0.31699800      -0.00000141 </v>
    <v>       0.10766559       0.22489020       0.94765227 </v>
    <v>       0.22115954       0.10943785       0.05398146 </v>
    <v>       0.10656726       0.55296161       0.95066587 </v>
    <v>       0.21720509       0.44264615       0.05008199 </v>
    <v>       0.10845291       0.88394265       0.94895471 </v>
    <v>       0.21727833       0.77510665       0.05103482 </v>
    <v>       0.44516433       0.22250856       0.94487087 </v>
    <v>       0.55585408       0.11183590       0.05511799 </v>
    <v>       0.44949081       0.55829550       0.94915716 </v>
    <v>       0.55949010       0.44985227       0.05122230 </v>
    <v>       0.44276607       0.88783053       0.94601124 </v>
    <v>       0.55824558       0.77431265       0.05237240 </v>
    <v>       0.78314874       0.22613594       0.94879659 </v>
    <v>       0.89161844       0.11613259       0.05082982 </v>
    <v>       0.77934584       0.55906257       0.95164948 </v>
    <v>       0.89238109       0.44602734       0.04834746 </v>
    <v>       0.77597018       0.88384691       0.94990696 </v>
    <v>       0.88625130       0.77320481       0.04934653 </v>
   </varray>
  </structure>
  <varray name="forces" >
   <v>       0.21657299       0.06523688      -0.00519703 </v>
   <v>       0.00069973       0.02113035      -0.00020836 </v>
   <v>      -0.21765075       0.06500885       0.00808956 </v>
   <v>       0.17842310      -0.30207932      -0.08479946 </v>
   <v>      -0.17810657      -0.30131788       0.08623072 </v>
   <v>      -0.00016053       0.05595715      -0.00363519 </v>
   <v>       0.18873408       0.33820060       0.01729345 </v>
   <v>      -0.18826687       0.33827005      -0.01821807 </v>
   <v>       0.00044666      -0.22403964       0.00156018 </v>
   <v>       0.06036343       0.06986647      -0.15292303 </v>
   <v>       0.17336896      -0.01020877       0.20990937 </v>
   <v>       0.07240319       0.07475959       0.04096408 </v>
   <v>       0.16200445       0.16982451      -0.12713740 </v>
   <v>       0.00550124       0.19475056      -0.01410642 </v>
   <v>      -0.00633923       0.19607611       0.01716214 </v>
   <v>      -0.03740593      -0.03879210      -0.26608288 </v>
   <v>       0.03794402      -0.03826145       0.26741427 </v>
   <v>      -0.01339663      -0.16265368       0.11718290 </v>
   <v>       0.07208147      -0.14660197      -0.03181088 </v>
   <v>      -0.17340890      -0.01103567      -0.20750224 </v>
   <v>      -0.06227001       0.06905918       0.14918684 </v>
   <v>      -0.07072855      -0.14520407       0.02860835 </v>
   <v>       0.01207476      -0.16128000      -0.11545556 </v>
   <v>       0.05259647      -0.18201995       0.13120417 </v>
   <v>      -0.05186952      -0.18192004      -0.13124336 </v>
   <v>      -0.16214749       0.17041525       0.12722206 </v>
   <v>      -0.07146357       0.07685900      -0.04370818 </v>
  </varray>
  <varray name="stress" >
   <v>      -0.25560198       0.00313670       0.58806680 </v>
   <v>       0.00313694       0.43591501       0.00346706 </v>
   <v>       0.58806651       0.00346688      -0.68833805 </v>
  </varray>
  <energy>
   <i name="e_fr_energy">   -191.50802936 </i>
   <i name="e_wo_entrp">   -191.40616874 </i>
   <i name="e_0_energy">     -0.20372123 </i>
  </energy>
  <time name="totalsc">  503.32  504.62</time>
 </calculation>
 <calculation>
  <scstep>
   <time name="dav">   30.42   30.49</time>
   <time name="total">   31.05   31.12</time>
   <energy>
    <i name="alphaZ">     90.14373729 </i>
    <i name="ewald">  44629.10544717 </i>
    <i name="hartreedc"> -50638.81350864 </i>
    <i name="XCdc">   -233.45962655 </i>
    <i name="pawpsdc">   4086.22063476 </i>
    <i name="pawaedc">  -3502.21029085 </i>
    <i name="eentropy">     -0.20660710 </i>
    <i name="bandstr">  -1383.79388075 </i>
    <i name="atom">   6761.44252427 </i>
    <i name="e_fr_energy">   -191.57157039 </i>
    <i name="e_wo_entrp">   -191.36496330 </i>
    <i name="e_0_energy">   -191.46826685 </i>
   </energy>
  </scstep>
  <scstep>
   <time name="dav">   44.10   44.21</time>
   <time name="total">   44.72   44.84</time>
   <energy>
    <i name="e_fr_energy">   -191.64276851 </i>
    <i name="e_wo_entrp">   -191.42294186 </i>
    <i name="e_0_energy">   -191.53285519 </i>
   </energy>
  </scstep>
  <scstep>
   <time name="dav">   43.15   43.26</time>
   <time name="total">   43.77   43.89</time>
   <energy>
    <i name="e_fr_energy">   -191.58447845 </i>
    <i name="e_wo_entrp">   -191.37694262 </i>
    <i name="e_0_energy">   -191.48071054 </i>
   </energy>
  </scstep>
  <scstep>
   <time name="dav">   40.67   40.77</time>
   <time name="total">   41.29   41.40</time>
   <energy>
    <i name="e_fr_energy">   -191.58612442 </i>
    <i name="e_wo_entrp">   -191.37436438 </i>
    <i name="e_0_energy">   -191.48024440 </i>
   </energy>
  </scstep>
  <scstep>
   <time name="dav">   39.49   39.59</time>
   <time name="total">   40.12   40.22</time>
   <energy>
    <i name="e_fr_energy">   -191.58284661 </i>
    <i name="e_wo_entrp">   -191.37392253 </i>
    <i name="e_0_energy">   -191.47838457 </i>
   </energy>
  </scstep>
  <scstep>
   <time name="dav">   37.25   37.34</time>
   <time name="total">   37.88   37.98</time>
   <energy>
    <i name="e_fr_energy">   -191.58260758 </i>
    <i name="e_wo_entrp">   -191.37281852 </i>
    <i name="e_0_energy">   -191.47771305 </i>
   </energy>
  </scstep>
  <scstep>
   <time name="dav">   36.65   36.73</time>
   <time name="total">   37.28   37.38</time>
   <energy>
    <i name="e_fr_energy">   -191.58231833 </i>
    <i name="e_wo_entrp">   -191.37285943 </i>
    <i name="e_0_energy">   -191.47758888 </i>
   </energy>
  </scstep>
  <scstep>
   <time name="dav">   26.76   26.82</time>
   <time name="total">   26.81   26.88</time>
   <energy>
    <i name="alphaZ">     90.14373729 </i>
    <i name="ewald">  44629.10544717 </i>
    <i name="hartreedc"> -50640.13145800 </i>
    <i name="XCdc">   -233.42603760 </i>
    <i name="pawpsdc">   4083.66669998 </i>
    <i name="pawaedc">  -3499.61648553 </i>
    <i name="eentropy">     -0.20943818 </i>
    <i name="bandstr">  -1382.55733817 </i>
    <i name="atom">   6761.44252427 </i>
    <i name="e_fr_energy">   -191.58234878 </i>
    <i name="e_wo_entrp">   -191.37291060 </i>
    <i name="e_0_energy">   -191.47762969 </i>
   </energy>
  </scstep>
  <structure>
   <crystal>
    <varray name="basis" >
     <v>       8.26528605       4.78907965       0.00000000 </v>
     <v>      -8.26519540       4.78892268       0.00000000 </v>
     <v>       0.00000000       0.00000000      30.00000000 </v>
    </varray>
    <i name="volume">   2374.93484719 </i>
    <varray name="rec_basis" >
     <v>       0.06049331       0.10440533       0.00000000 </v>
     <v>      -0.06049530       0.10440648       0.00000000 </v>
     <v>       0.00000000       0.00000000       0.03333333 </v>
    </varray>
   </crystal>
   <varray name="positions" >
    <v>       1.00271365       0.32865801       0.00041227 </v>
    <v>       0.00359291       0.67028718      -0.00000011 </v>
    <v>       0.66194926       0.66940043      -0.00041049 </v>
    <v>       0.33042797       0.31786684       0.00003179 </v>
    <v>       0.65116490      -0.00302978      -0.00003046 </v>
    <v>       0.34652458       0.01321149      -0.00000168 </v>
    <v>       0.01185665       0.00971204      -0.00012314 </v>
    <v>       0.34312964       0.67856542       0.00012249 </v>
    <v>       0.64908999       0.31579855       0.00000112 </v>
    <v>       0.10820024       0.22507588       0.94738484 </v>
    <v>       0.22162170       0.10887147       0.05434356 </v>
    <v>       0.10715717       0.55312528       0.95072087 </v>
    <v>       0.21854558       0.44303073       0.04988531 </v>
    <v>       0.10946524       0.88491633       0.94891807 </v>
    <v>       0.21825631       0.77612815       0.05107638 </v>
    <v>       0.44485323       0.22241906       0.94441317 </v>
    <v>       0.55576892       0.11152594       0.05557780 </v>
    <v>       0.44862668       0.55750415       0.94933504 </v>
    <v>       0.55895792       0.44889693       0.05118483 </v>
    <v>       0.44219533       0.88828861       0.94565303 </v>
    <v>       0.55842157       0.77484875       0.05263392 </v>
    <v>       0.78220443       0.22560686       0.94882897 </v>
    <v>       0.89083020       0.11527934       0.05065466 </v>
    <v>       0.77857335       0.55798023       0.95185489 </v>
    <v>       0.89130138       0.44525324       0.04814194 </v>
    <v>       0.77635734       0.88519081       0.95010370 </v>
    <v>       0.88642832       0.77380255       0.04928717 </v>
   </varray>
  </structure>
  <varray name="forces" >
   <v>       0.22544726       0.08200436       0.01929800 </v>
   <v>       0.00543441      -0.00168383       0.00017587 </v>
   <v>      -0.21750848       0.08294151      -0.01810617 </v>
   <v>       0.18152961      -0.35016160      -0.02513939 </v>
   <v>      -0.18980966      -0.33924623       0.02397370 </v>
   <v>       0.00116879       0.09101419       0.00095402 </v>
   <v>       0.21470526       0.37666613       0.03030692 </v>
   <v>      -0.22459465       0.36664954      -0.02986082 </v>
   <v>       0.00493203      -0.27821693      -0.00089807 </v>
   <v>       0.03978913       0.03184673      -0.14392079 </v>
   <v>       0.11815052       0.00204968       0.16570823 </v>
   <v>       0.04960776       0.05217142       0.06187385 </v>
   <v>       0.10042256       0.13901655      -0.16177328 </v>
   <v>       0.00981633       0.10398639      -0.03199425 </v>
   <v>      -0.00996020       0.10498231       0.03283526 </v>
   <v>      -0.00912606      -0.02687785      -0.15524442 </v>
   <v>       0.00941537      -0.02875110       0.15579914 </v>
   <v>      -0.01733862      -0.10898388       0.14979724 </v>
   <v>       0.01505270      -0.10913012      -0.07370779 </v>
   <v>      -0.11759976       0.00224767      -0.16553915 </v>
   <v>      -0.04424309       0.03115204       0.14536949 </v>
   <v>      -0.01336462      -0.10623556       0.07579231 </v>
   <v>       0.01523955      -0.10494202      -0.15163471 </v>
   <v>       0.01542508      -0.10550756       0.15005449 </v>
   <v>      -0.01235434      -0.10544615      -0.15254564 </v>
   <v>      -0.10278742       0.14258792       0.15934392 </v>
   <v>      -0.04744943       0.05586639      -0.06091795 </v>
  </varray>
  <varray name="stress" >
   <v>       0.07753615      -0.00413489       0.30944259 </v>
   <v>      -0.00413485       0.14415630      -0.00196634 </v>
   <v>       0.30944265      -0.00196638      -1.34577762 </v>
  </varray>
  <energy>
   <i name="e_fr_energy">   -191.58234878 </i>
   <i name="e_wo_entrp">   -191.47762969 </i>
   <i name="e_0_energy">     -0.20943818 </i>
  </energy>
  <time name="totalsc">  363.05  363.98</time>
 </calculation>
 <calculation>
  <scstep>
   <time name="dav">   30.32   30.39</time>
   <time name="total">   30.96   31.03</time>
   <energy>
    <i name="alphaZ">     90.06082289 </i>
    <i name="ewald">  44596.20346991 </i>
    <i name="hartreedc"> -50605.99314931 </i>
    <i name="XCdc">   -233.46935851 </i>
    <i name="pawpsdc">   4083.63167230 </i>
    <i name="pawaedc">  -3499.58118746 </i>
    <i name="eentropy">     -0.20884771 </i>
    <i name="bandstr">  -1383.73530078 </i>
    <i name="atom">   6761.44252427 </i>
    <i name="e_fr_energy">   -191.64935439 </i>
    <i name="e_wo_entrp">   -191.44050668 </i>
    <i name="e_0_energy">   -191.54493054 </i>
   </energy>
  </scstep>
  <scstep>
   <time name="dav">   45.71   45.83</time>
   <time name="total">   46.33   46.46</time>
   <energy>
    <i name="e_fr_energy">   -191.72863964 </i>
    <i name="e_wo_entrp">   -191.49866628 </i>
    <i name="e_0_energy">   -191.61365296 </i>
   </energy>
  </scstep>
  <scstep>
   <time name="dav">   42.79   42.90</time>
   <time name="total">   43.42   43.54</time>
   <energy>
    <i name="e_fr_energy">   -191.65824399 </i>
    <i name="e_wo_entrp">   -191.44791535 </i>
    <i name="e_0_energy">   -191.55307967 </i>
   </energy>
  </scstep>
  <scstep>
   <time name="dav">   40.44   40.54</time>
   <time name="total">   41.06   41.17</time>
   <energy>
    <i name="e_fr_energy">   -191.66201358 </i>
    <i name="e_wo_entrp">   -191.44579000 </i>
    <i name="e_0_energy">   -191.55390179 </i>
   </energy>
  </scstep>
  <scstep>
   <time name="dav">   39.95   40.04</time>
   <time name="total">   40.57   40.68</time>
   <energy>
    <i name="e_fr_energy">   -191.65584099 </i>
    <i name="e_wo_entrp">   -191.44321957 </i>
    <i name="e_0_energy">   -191.54953028 </i>
   </energy>
  </scstep>
  <scstep>
   <time name="dav">   35.97   36.06</time>
   <time name="total">   36.60   36.70</time>
   <energy>
    <i name="e_fr_energy">   -191.65569715 </i>
    <i name="e_wo_entrp">   -191.44207792 </i>
    <i name="e_0_energy">   -191.54888754 </i>
   </energy>
  </scstep>
  <scstep>
   <time name="dav">   38.28   38.37</time>
   <time name="total">   38.90   39.00</time>
   <energy>
    <i name="e_fr_energy">   -191.65648227 </i>
    <i name="e_wo_entrp">   -191.44329710 </i>
    <i name="e_0_energy">   -191.54988969 </i>
   </energy>
  </scstep>
  <scstep>
   <time name="dav">   34.69   34.77</time>
   <time name="total">   35.33   35.42</time>
   <energy>
    <i name="e_fr_energy">   -191.65532220 </i>
    <i name="e_wo_entrp">   -191.44203015 </i>
    <i name="e_0_energy">   -191.54867617 </i>
   </energy>
  </scstep>
  <scstep>
   <time name="dav">   23.53   23.58</time>
   <time name="total">   23.57   23.64</time>
   <energy>
    <i name="alphaZ">     90.06082289 </i>
    <i name="ewald">  44596.20346991 </i>
    <i name="hartreedc"> -50607.45385512 </i>
    <i name="XCdc">   -233.41361599 </i>
    <i name="pawpsdc">   4085.74921691 </i>
    <i name="pawaedc">  -3501.73071436 </i>
    <i name="eentropy">     -0.21325711 </i>
    <i name="bandstr">  -1382.29994978 </i>
    <i name="atom">   6761.44252427 </i>
    <i name="e_fr_energy">   -191.65535838 </i>
    <i name="e_wo_entrp">   -191.44210126 </i>
    <i name="e_0_energy">   -191.54872982 </i>
   </energy>
  </scstep>
  <structure>
   <crystal>
    <varray name="basis" >
     <v>       8.26836006       4.79156832       0.00000000 </v>
     <v>      -8.26838933       4.79161829       0.00000000 </v>
[...]
      <set comment="kpoint 31">
       <r>  -17.5234    1.0000 </r>
       <r>  -17.2655    1.0000 </r>
       <r>  -16.9208    1.0000 </r>
       <r>  -16.6937    1.0000 </r>
       <r>  -16.5102    1.0000 </r>
       <r>  -16.4374    1.0000 </r>
       <r>  -16.3404    1.0000 </r>
       <r>  -16.1809    1.0000 </r>
       <r>  -16.0655    1.0000 </r>
       <r>  -16.0201    1.0000 </r>
       <r>  -15.9580    1.0000 </r>
       <r>  -15.9090    1.0000 </r>
       <r>  -15.8073    1.0000 </r>
       <r>  -15.7032    1.0000 </r>
       <r>  -15.6369    1.0000 </r>
       <r>  -15.4261    1.0000 </r>
       <r>  -15.3936    1.0000 </r>
       <r>  -15.2497    1.0000 </r>
       <r>   -9.7214    1.0000 </r>
       <r>   -9.4564    1.0000 </r>
       <r>   -9.3313    1.0000 </r>
       <r>   -9.0071    1.0000 </r>
       <r>   -8.8731    1.0000 </r>
       <r>   -8.7390    1.0000 </r>
       <r>   -8.5293    1.0000 </r>
       <r>   -8.5030    1.0000 </r>
       <r>   -8.4384    1.0000 </r>
       <r>   -8.3334    1.0000 </r>
       <r>   -8.2511    1.0000 </r>
       <r>   -8.1867    1.0000 </r>
       <r>   -8.1546    1.0000 </r>
       <r>   -8.0957    1.0000 </r>
       <r>   -8.0263    1.0000 </r>
       <r>   -7.8715    1.0000 </r>
       <r>   -7.8407    1.0000 </r>
       <r>   -7.7433    1.0000 </r>
       <r>   -7.6193    1.0000 </r>
       <r>   -7.4224    1.0000 </r>
       <r>   -7.3174    1.0000 </r>
       <r>   -7.1940    1.0000 </r>
       <r>   -7.1660    1.0000 </r>
       <r>   -7.0759    1.0000 </r>
       <r>   -6.9934    1.0000 </r>
       <r>   -6.9461    1.0000 </r>
       <r>   -6.8372    1.0000 </r>
       <r>   -6.7978    1.0000 </r>
       <r>   -6.7250    1.0000 </r>
       <r>   -6.6342    1.0000 </r>
       <r>   -6.5248    1.0000 </r>
       <r>   -6.4846    1.0000 </r>
       <r>   -6.4379    1.0000 </r>
       <r>   -6.3670    1.0000 </r>
       <r>   -6.2895    1.0000 </r>
       <r>   -6.2728    1.0000 </r>
       <r>   -6.1481    1.0000 </r>
       <r>   -6.0729    1.0000 </r>
       <r>   -5.9664    1.0000 </r>
       <r>   -5.8895    1.0000 </r>
       <r>   -5.8621    1.0000 </r>
       <r>   -5.8103    1.0000 </r>
       <r>   -5.6966    1.0000 </r>
       <r>   -5.6431    1.0000 </r>
       <r>   -5.4562    1.0000 </r>
       <r>   -5.3371    1.0000 </r>
       <r>   -5.2754    1.0000 </r>
       <r>   -5.1173    1.0000 </r>
       <r>   -5.0666    1.0000 </r>
       <r>   -4.9049    1.0000 </r>
       <r>   -4.8285    1.0000 </r>
       <r>   -4.6616    1.0000 </r>
       <r>   -4.6344    1.0000 </r>
       <r>   -4.5152    1.0000 </r>
       <r>   -4.3618    1.0000 </r>
       <r>   -4.2735    1.0000 </r>
       <r>   -4.1359    1.0000 </r>
       <r>   -4.0315    1.0000 </r>
       <r>   -3.8343    0.9997 </r>
       <r>   -3.6967    0.9937 </r>
       <r>   -3.5287    0.9041 </r>
       <r>   -3.4133    0.6875 </r>
       <r>   -2.9861    0.0057 </r>
       <r>   -2.8710    0.0004 </r>
       <r>   -2.7144    0.0000 </r>
       <r>   -2.5920    0.0000 </r>
       <r>   -2.5418    0.0000 </r>
       <r>   -2.4518    0.0000 </r>
       <r>   -2.2642    0.0000 </r>
       <r>   -2.1670    0.0000 </r>
       <r>   -2.1023    0.0000 </r>
       <r>   -1.9188    0.0000 </r>
       <r>   -1.6660    0.0000 </r>
       <r>   -1.5444    0.0000 </r>
       <r>   -1.5139    0.0000 </r>
       <r>   -1.3392    0.0000 </r>
       <r>   -1.2598    0.0000 </r>
       <r>   -1.1827    0.0000 </r>
       <r>   -1.0478    0.0000 </r>
       <r>   -1.0257    0.0000 </r>
       <r>   -0.9754    0.0000 </r>
       <r>   -0.9205    0.0000 </r>
       <r>   -0.8131    0.0000 </r>
       <r>   -0.7568    0.0000 </r>
       <r>   -0.6939    0.0000 </r>
       <r>   -0.6286    0.0000 </r>
       <r>   -0.4930    0.0000 </r>
       <r>   -0.3892    0.0000 </r>
       <r>   -0.2675    0.0000 </r>
       <r>   -0.1573    0.0000 </r>
       <r>   -0.0665    0.0000 </r>
       <r>    0.1708    0.0000 </r>
       <r>    0.2459    0.0000 </r>
       <r>    0.6855    0.0000 </r>
       <r>    0.9032    0.0000 </r>
       <r>    0.9441    0.0000 </r>
       <r>    1.0514    0.0000 </r>
       <r>    1.2780    0.0000 </r>
       <r>    1.3835    0.0000 </r>
       <r>    2.1230    0.0000 </r>
       <r>    2.2926    0.0000 </r>
       <r>    2.3769    0.0000 </r>
      </set>
      <set comment="kpoint 32">
       <r>  -17.5259    1.0000 </r>
       <r>  -17.2061    1.0000 </r>
       <r>  -17.0312    1.0000 </r>
       <r>  -16.6906    1.0000 </r>
       <r>  -16.4742    1.0000 </r>
       <r>  -16.3629    1.0000 </r>
       <r>  -16.3132    1.0000 </r>
       <r>  -16.2351    1.0000 </r>
       <r>  -16.1215    1.0000 </r>
       <r>  -16.0471    1.0000 </r>
       <r>  -15.9459    1.0000 </r>
       <r>  -15.8897    1.0000 </r>
       <r>  -15.8138    1.0000 </r>
       <r>  -15.6839    1.0000 </r>
       <r>  -15.6267    1.0000 </r>
       <r>  -15.4287    1.0000 </r>
       <r>  -15.3886    1.0000 </r>
       <r>  -15.2534    1.0000 </r>
       <r>   -9.6657    1.0000 </r>
       <r>   -9.5719    1.0000 </r>
       <r>   -9.4220    1.0000 </r>
       <r>   -8.9747    1.0000 </r>
       <r>   -8.7132    1.0000 </r>
       <r>   -8.6530    1.0000 </r>
       <r>   -8.5453    1.0000 </r>
       <r>   -8.4733    1.0000 </r>
       <r>   -8.4224    1.0000 </r>
       <r>   -8.3470    1.0000 </r>
       <r>   -8.2667    1.0000 </r>
       <r>   -8.2573    1.0000 </r>
       <r>   -8.1452    1.0000 </r>
       <r>   -8.1163    1.0000 </r>
       <r>   -8.0408    1.0000 </r>
       <r>   -7.9423    1.0000 </r>
       <r>   -7.8045    1.0000 </r>
       <r>   -7.7851    1.0000 </r>
       <r>   -7.5890    1.0000 </r>
       <r>   -7.4402    1.0000 </r>
       <r>   -7.3338    1.0000 </r>
       <r>   -7.2532    1.0000 </r>
       <r>   -7.1920    1.0000 </r>
       <r>   -7.0913    1.0000 </r>
       <r>   -6.9764    1.0000 </r>
       <r>   -6.9094    1.0000 </r>
       <r>   -6.8577    1.0000 </r>
       <r>   -6.7718    1.0000 </r>
       <r>   -6.6946    1.0000 </r>
       <r>   -6.5920    1.0000 </r>
       <r>   -6.5539    1.0000 </r>
       <r>   -6.4890    1.0000 </r>
       <r>   -6.4415    1.0000 </r>
       <r>   -6.3418    1.0000 </r>
       <r>   -6.2860    1.0000 </r>
       <r>   -6.2604    1.0000 </r>
       <r>   -6.1255    1.0000 </r>
       <r>   -6.0402    1.0000 </r>
       <r>   -5.9753    1.0000 </r>
       <r>   -5.8994    1.0000 </r>
       <r>   -5.8325    1.0000 </r>
       <r>   -5.7337    1.0000 </r>
       <r>   -5.7112    1.0000 </r>
       <r>   -5.5572    1.0000 </r>
       <r>   -5.4815    1.0000 </r>
       <r>   -5.4128    1.0000 </r>
       <r>   -5.2487    1.0000 </r>
       <r>   -5.1866    1.0000 </r>
       <r>   -5.0544    1.0000 </r>
       <r>   -4.9654    1.0000 </r>
       <r>   -4.8224    1.0000 </r>
       <r>   -4.7015    1.0000 </r>
       <r>   -4.6287    1.0000 </r>
       <r>   -4.4819    1.0000 </r>
       <r>   -4.3666    1.0000 </r>
       <r>   -4.3452    1.0000 </r>
       <r>   -4.1334    1.0000 </r>
       <r>   -4.0350    1.0000 </r>
       <r>   -3.8432    0.9998 </r>
       <r>   -3.6233    0.9758 </r>
       <r>   -3.5115    0.8817 </r>
       <r>   -3.3179    0.4263 </r>
       <r>   -3.0516    0.0193 </r>
       <r>   -2.9059    0.0010 </r>
       <r>   -2.7627    0.0000 </r>
       <r>   -2.6156    0.0000 </r>
       <r>   -2.5588    0.0000 </r>
       <r>   -2.4826    0.0000 </r>
       <r>   -2.2379    0.0000 </r>
       <r>   -2.1436    0.0000 </r>
       <r>   -2.0835    0.0000 </r>
       <r>   -1.9493    0.0000 </r>
       <r>   -1.6925    0.0000 </r>
       <r>   -1.5582    0.0000 </r>
       <r>   -1.5185    0.0000 </r>
       <r>   -1.3046    0.0000 </r>
       <r>   -1.2251    0.0000 </r>
       <r>   -1.1892    0.0000 </r>
       <r>   -1.0199    0.0000 </r>
       <r>   -1.0045    0.0000 </r>
       <r>   -0.9576    0.0000 </r>
       <r>   -0.9333    0.0000 </r>
       <r>   -0.8128    0.0000 </r>
       <r>   -0.7713    0.0000 </r>
       <r>   -0.6833    0.0000 </r>
       <r>   -0.6006    0.0000 </r>
       <r>   -0.5546    0.0000 </r>
       <r>   -0.4108    0.0000 </r>
       <r>   -0.3182    0.0000 </r>
       <r>   -0.0740    0.0000 </r>
       <r>   -0.0053    0.0000 </r>
       <r>    0.2080    0.0000 </r>
       <r>    0.2487    0.0000 </r>
       <r>    0.6726    0.0000 </r>
       <r>    0.8757    0.0000 </r>
       <r>    0.9416    0.0000 </r>
       <r>    1.0898    0.0000 </r>
       <r>    1.2138    0.0000 </r>
       <r>    1.3666    0.0000 </r>
       <r>    2.1010    0.0000 </r>
       <r>    2.2576    0.0000 </r>
       <r>    2.5573    0.0000 </r>
      </set>
      <set comment="kpoint 33">
       <r>  -17.4956    1.0000 </r>
       <r>  -17.2993    1.0000 </r>
       <r>  -16.9213    1.0000 </r>
       <r>  -16.6866    1.0000 </r>
       <r>  -16.5035    1.0000 </r>
       <r>  -16.4552    1.0000 </r>
       <r>  -16.3309    1.0000 </r>
       <r>  -16.1878    1.0000 </r>
       <r>  -16.1506    1.0000 </r>
       <r>  -16.0181    1.0000 </r>
       <r>  -15.9124    1.0000 </r>
       <r>  -15.8512    1.0000 </r>
       <r>  -15.8164    1.0000 </r>
       <r>  -15.6834    1.0000 </r>
       <r>  -15.6378    1.0000 </r>
       <r>  -15.4298    1.0000 </r>
       <r>  -15.3942    1.0000 </r>
       <r>  -15.2613    1.0000 </r>
       <r>   -9.7635    1.0000 </r>
       <r>   -9.4494    1.0000 </r>
       <r>   -9.3945    1.0000 </r>
       <r>   -8.9563    1.0000 </r>
       <r>   -8.8198    1.0000 </r>
       <r>   -8.7128    1.0000 </r>
       <r>   -8.6298    1.0000 </r>
       <r>   -8.5844    1.0000 </r>
       <r>   -8.3666    1.0000 </r>
       <r>   -8.2884    1.0000 </r>
       <r>   -8.2553    1.0000 </r>
       <r>   -8.1484    1.0000 </r>
       <r>   -8.1027    1.0000 </r>
       <r>   -8.0845    1.0000 </r>
       <r>   -8.0055    1.0000 </r>
       <r>   -7.9276    1.0000 </r>
       <r>   -7.8076    1.0000 </r>
       <r>   -7.7652    1.0000 </r>
       <r>   -7.5717    1.0000 </r>
       <r>   -7.4623    1.0000 </r>
       <r>   -7.4043    1.0000 </r>
       <r>   -7.3525    1.0000 </r>
       <r>   -7.1396    1.0000 </r>
       <r>   -7.0669    1.0000 </r>
       <r>   -6.9731    1.0000 </r>
       <r>   -6.8713    1.0000 </r>
       <r>   -6.8483    1.0000 </r>
       <r>   -6.7913    1.0000 </r>
       <r>   -6.7238    1.0000 </r>
       <r>   -6.5877    1.0000 </r>
       <r>   -6.5339    1.0000 </r>
       <r>   -6.4972    1.0000 </r>
       <r>   -6.4472    1.0000 </r>
       <r>   -6.3556    1.0000 </r>
       <r>   -6.2690    1.0000 </r>
       <r>   -6.1453    1.0000 </r>
       <r>   -6.1251    1.0000 </r>
       <r>   -6.0372    1.0000 </r>
       <r>   -6.0032    1.0000 </r>
       <r>   -5.9358    1.0000 </r>
       <r>   -5.8513    1.0000 </r>
       <r>   -5.7651    1.0000 </r>
       <r>   -5.6569    1.0000 </r>
       <r>   -5.6185    1.0000 </r>
       <r>   -5.5302    1.0000 </r>
       <r>   -5.4204    1.0000 </r>
       <r>   -5.2966    1.0000 </r>
       <r>   -5.1813    1.0000 </r>
       <r>   -5.0721    1.0000 </r>
       <r>   -4.8424    1.0000 </r>
       <r>   -4.7642    1.0000 </r>
       <r>   -4.7282    1.0000 </r>
       <r>   -4.6100    1.0000 </r>
       <r>   -4.4487    1.0000 </r>
       <r>   -4.3891    1.0000 </r>
       <r>   -4.3425    1.0000 </r>
       <r>   -4.1559    1.0000 </r>
       <r>   -4.0531    1.0000 </r>
       <r>   -3.9099    1.0000 </r>
       <r>   -3.5824    0.9540 </r>
       <r>   -3.4483    0.7694 </r>
       <r>   -3.2760    0.3150 </r>
       <r>   -3.0996    0.0419 </r>
       <r>   -2.9425    0.0023 </r>
       <r>   -2.8344    0.0002 </r>
       <r>   -2.6334    0.0000 </r>
       <r>   -2.5854    0.0000 </r>
       <r>   -2.5082    0.0000 </r>
       <r>   -2.2068    0.0000 </r>
       <r>   -2.1145    0.0000 </r>
       <r>   -2.0747    0.0000 </r>
       <r>   -1.9283    0.0000 </r>
       <r>   -1.7344    0.0000 </r>
       <r>   -1.5718    0.0000 </r>
       <r>   -1.4937    0.0000 </r>
       <r>   -1.2913    0.0000 </r>
       <r>   -1.2026    0.0000 </r>
       <r>   -1.1887    0.0000 </r>
       <r>   -1.0082    0.0000 </r>
       <r>   -0.9836    0.0000 </r>
       <r>   -0.9427    0.0000 </r>
       <r>   -0.9099    0.0000 </r>
       <r>   -0.8408    0.0000 </r>
       <r>   -0.7831    0.0000 </r>
       <r>   -0.6726    0.0000 </r>
       <r>   -0.5847    0.0000 </r>
       <r>   -0.5479    0.0000 </r>
       <r>   -0.4925    0.0000 </r>
       <r>   -0.4219    0.0000 </r>
       <r>   -0.0449    0.0000 </r>
       <r>    0.0904    0.0000 </r>
       <r>    0.2425    0.0000 </r>
       <r>    0.2795    0.0000 </r>
       <r>    0.6798    0.0000 </r>
       <r>    0.8683    0.0000 </r>
       <r>    0.9589    0.0000 </r>
       <r>    1.1252    0.0000 </r>
       <r>    1.1557    0.0000 </r>
       <r>    1.3706    0.0000 </r>
       <r>    2.1391    0.0000 </r>
       <r>    2.2873    0.0000 </r>
       <r>    2.4021    0.0000 </r>
      </set>
      <set comment="kpoint 34">
       <r>  -17.4512    1.0000 </r>
       <r>  -17.3790    1.0000 </r>
       <r>  -16.7952    1.0000 </r>
       <r>  -16.6846    1.0000 </r>
       <r>  -16.6273    1.0000 </r>
       <r>  -16.4761    1.0000 </r>
       <r>  -16.3231    1.0000 </r>
       <r>  -16.1810    1.0000 </r>
       <r>  -16.1557    1.0000 </r>
       <r>  -15.9996    1.0000 </r>
       <r>  -15.8845    1.0000 </r>
       <r>  -15.8345    1.0000 </r>
       <r>  -15.8060    1.0000 </r>
       <r>  -15.6852    1.0000 </r>
       <r>  -15.6545    1.0000 </r>
       <r>  -15.4307    1.0000 </r>
       <r>  -15.4016    1.0000 </r>
       <r>  -15.2649    1.0000 </r>
       <r>   -9.8054    1.0000 </r>
       <r>   -9.3818    1.0000 </r>
       <r>   -9.3142    1.0000 </r>
       <r>   -9.0002    1.0000 </r>
       <r>   -8.9151    1.0000 </r>
       <r>   -8.7471    1.0000 </r>
       <r>   -8.6816    1.0000 </r>
       <r>   -8.6241    1.0000 </r>
       <r>   -8.3332    1.0000 </r>
       <r>   -8.3039    1.0000 </r>
       <r>   -8.2333    1.0000 </r>
       <r>   -8.1209    1.0000 </r>
       <r>   -8.0797    1.0000 </r>
       <r>   -8.0728    1.0000 </r>
       <r>   -7.9343    1.0000 </r>
       <r>   -7.8746    1.0000 </r>
       <r>   -7.7699    1.0000 </r>
       <r>   -7.7509    1.0000 </r>
       <r>   -7.6099    1.0000 </r>
       <r>   -7.5187    1.0000 </r>
       <r>   -7.4402    1.0000 </r>
       <r>   -7.3633    1.0000 </r>
       <r>   -7.1089    1.0000 </r>
       <r>   -7.0482    1.0000 </r>
       <r>   -6.9859    1.0000 </r>
       <r>   -6.8638    1.0000 </r>
       <r>   -6.8550    1.0000 </r>
       <r>   -6.7441    1.0000 </r>
       <r>   -6.6512    1.0000 </r>
       <r>   -6.6456    1.0000 </r>
       <r>   -6.5458    1.0000 </r>
       <r>   -6.5098    1.0000 </r>
       <r>   -6.4829    1.0000 </r>
       <r>   -6.3290    1.0000 </r>
       <r>   -6.2726    1.0000 </r>
       <r>   -6.2059    1.0000 </r>
       <r>   -6.1475    1.0000 </r>
       <r>   -6.0233    1.0000 </r>
       <r>   -5.9803    1.0000 </r>
       <r>   -5.9404    1.0000 </r>
       <r>   -5.8045    1.0000 </r>
       <r>   -5.7300    1.0000 </r>
       <r>   -5.7187    1.0000 </r>
       <r>   -5.5842    1.0000 </r>
       <r>   -5.5720    1.0000 </r>
       <r>   -5.5191    1.0000 </r>
       <r>   -5.2952    1.0000 </r>
       <r>   -5.1477    1.0000 </r>
       <r>   -5.0878    1.0000 </r>
       <r>   -4.8083    1.0000 </r>
       <r>   -4.7464    1.0000 </r>
       <r>   -4.7047    1.0000 </r>
       <r>   -4.4803    1.0000 </r>
       <r>   -4.4745    1.0000 </r>
       <r>   -4.3950    1.0000 </r>
       <r>   -4.3419    1.0000 </r>
       <r>   -4.2108    1.0000 </r>
       <r>   -4.0638    1.0000 </r>
       <r>   -3.9506    1.0000 </r>
       <r>   -3.5674    0.9428 </r>
       <r>   -3.3963    0.6440 </r>
       <r>   -3.3042    0.3889 </r>
       <r>   -3.0980    0.0409 </r>
       <r>   -2.9445    0.0024 </r>
       <r>   -2.8858    0.0006 </r>
       <r>   -2.6356    0.0000 </r>
       <r>   -2.6005    0.0000 </r>
       <r>   -2.5184    0.0000 </r>
       <r>   -2.1903    0.0000 </r>
       <r>   -2.1026    0.0000 </r>
       <r>   -2.0747    0.0000 </r>
       <r>   -1.9052    0.0000 </r>
       <r>   -1.7571    0.0000 </r>
       <r>   -1.5762    0.0000 </r>
       <r>   -1.4745    0.0000 </r>
       <r>   -1.2813    0.0000 </r>
       <r>   -1.2000    0.0000 </r>
       <r>   -1.1930    0.0000 </r>
       <r>   -1.0188    0.0000 </r>
       <r>   -1.0010    0.0000 </r>
       <r>   -0.9021    0.0000 </r>
       <r>   -0.8911    0.0000 </r>
       <r>   -0.8709    0.0000 </r>
       <r>   -0.7394    0.0000 </r>
       <r>   -0.6816    0.0000 </r>
       <r>   -0.5846    0.0000 </r>
       <r>   -0.5772    0.0000 </r>
       <r>   -0.5150    0.0000 </r>
       <r>   -0.4656    0.0000 </r>
       <r>   -0.0666    0.0000 </r>
       <r>    0.1656    0.0000 </r>
       <r>    0.2655    0.0000 </r>
       <r>    0.2677    0.0000 </r>
       <r>    0.6946    0.0000 </r>
       <r>    0.8741    0.0000 </r>
       <r>    0.9656    0.0000 </r>
       <r>    1.1306    0.0000 </r>
       <r>    1.1427    0.0000 </r>
       <r>    1.3783    0.0000 </r>
       <r>    2.2195    0.0000 </r>
       <r>    2.2612    0.0000 </r>
       <r>    2.3820    0.0000 </r>
      </set>
     </set>
    </set>
   </array>
  </eigenvalues>
  <separator name="orbital magnetization" >
   <v name="MAGDIPOLOUT">      0.00000000      0.00000000      0.00000000</v>
  </separator>
 </calculation>
 <structure name="finalpos" >
  <crystal>
   <varray name="basis" >
    <v>       8.33024762       4.83855346       0.00000000 </v>
    <v>      -8.33056347       4.83909719       0.00000000 </v>
    <v>       0.00000000       0.00000000      30.00000000 </v>
   </varray>
   <i name="volume">   2418.56263839 </i>
   <varray name="rec_basis" >
    <v>       0.06002446       0.10333282       0.00000000 </v>
    <v>      -0.06001772       0.10332890       0.00000000 </v>
    <v>       0.00000000       0.00000000       0.03333333 </v>
   </varray>
  </crystal>
  <varray name="positions" >
   <v>       1.03676367       0.34581687      -0.00166969 </v>
   <v>       0.02078436       0.68742944      -0.00000038 </v>
   <v>       0.67911916       0.70347447       0.00164789 </v>
   <v>       0.31690527       0.29731183      -0.00030745 </v>
   <v>       0.63061951      -0.01649426       0.00031362 </v>
   <v>       0.33405327       0.00070316       0.00000324 </v>
   <v>       0.02439449       0.01120364      -0.00024450 </v>
   <v>       0.34458515       0.69110258       0.00024279 </v>
   <v>       0.63072382       0.29740415       0.00001005 </v>
   <v>       0.11082102       0.22199766       0.94464721 </v>
   <v>       0.22019392       0.10210963       0.05647224 </v>
   <v>       0.11328216       0.55905404       0.94965721 </v>
   <v>       0.22979596       0.44471331       0.04979498 </v>
   <v>       0.10503830       0.88330396       0.94617821 </v>
   <v>       0.21663534       0.77170725       0.05382865 </v>
   <v>       0.43652267       0.21323291       0.94324917 </v>
   <v>       0.54653730       0.10319145       0.05676118 </v>
   <v>       0.45029431       0.55417413       0.95648446 </v>
   <v>       0.55702415       0.44800711       0.04753328 </v>
   <v>       0.43544481       0.88685265       0.94352471 </v>
   <v>       0.55535842       0.77744404       0.05533115 </v>
   <v>       0.78135997       0.22371431       0.95248869 </v>
   <v>       0.88747318       0.11693607       0.04351255 </v>
   <v>       0.77504346       0.55574944       0.95840097 </v>
   <v>       0.88908725       0.44168900       0.04159639 </v>
   <v>       0.77800901       0.89645910       0.95022190 </v>
   <v>       0.89234451       0.77992651       0.05032137 </v>
  </varray>
 </structure>
</modeling>
