   27   27  100    1
  0.9710400E+02  0.1002848E-08  0.1002848E-08  0.3000000E-08  0.5000000E-15
  1.000000000000000E-004
  CAR 
 unknown system                          
    159     34    120
 
  0.0000000E+00  0.0000000E+00  0.0000000E+00  0.1562500E-01
    1      -17.804556   1.000000
    2      -16.769095   1.000000
    3      -16.631277   1.000000
    4      -16.595297   1.000000
    5      -16.508260   1.000000
    6      -16.429831   1.000000
    7      -16.380966   1.000000
    8      -16.266428   1.000000
    9      -16.222989   1.000000
   10      -16.148207   1.000000
   11      -16.082748   1.000000
   12      -15.962210   1.000000
   13      -15.831976   1.000000
   14      -15.719842   1.000000
   15      -15.583074   1.000000
   16      -15.508083   1.000000
   17      -15.371214   1.000000
   18      -15.337368   1.000000
   19       -9.209662   1.000000
   20       -8.991927   1.000000
   21       -8.893388   1.000000
   22       -8.860633   1.000000
   23       -8.760787   1.000000
   24       -8.681193   1.000000
   25       -8.615332   1.000000
   26       -8.596278   1.000000
   27       -8.546187   1.000000
   28       -8.434124   1.000000
   29       -8.422267   1.000000
   30       -8.325591   1.000000
   31       -8.319334   1.000000
   32       -8.229367   1.000000
   33       -8.209502   1.000000
   34       -8.021999   1.000000
   35       -7.868950   1.000000
   36       -7.795193   1.000000
   37       -7.673135   1.000000
   38       -7.538975   1.000000
   39       -7.438949   1.000000
   40       -7.366552   1.000000
   41       -7.321667   1.000000
   42       -7.243815   1.000000
   43       -7.149825   1.000000
   44       -6.977413   1.000000
   45       -6.878792   1.000000
   46       -6.838749   1.000000
   47       -6.757292   1.000000
   48       -6.698517   1.000000
   49       -6.637043   1.000000
   50       -6.494990   1.000000
   51       -6.448132   1.000000
   52       -6.358640   1.000000
   53       -6.275646   1.000000
   54       -6.179869   1.000000
   55       -6.131900   1.000000
   56       -6.113764   1.000000
   57       -5.965203   1.000000
   58       -5.865972   1.000000
   59       -5.813916   1.000000
   60       -5.623808   1.000000
   61       -5.477763   1.000000
   62       -5.382072   1.000000
   63       -5.339597   1.000000
   64       -5.204466   1.000000
   65       -5.072848   1.000000
   66       -4.980156   1.000000
   67       -4.960616   1.000000
   68       -4.817467   1.000000
   69       -4.776957   1.000000
   70       -4.754551   1.000000
   71       -4.651208   1.000000
   72       -4.574981   1.000000
   73       -4.487546   1.000000
   74       -4.254250   1.000000
   75       -4.185050   1.000000
   76       -4.091433   1.000000
   77       -3.663231   0.995178
   78       -3.549966   0.963069
   79       -3.523246   0.945037
   80       -3.410143   0.787787
   81       -3.225682   0.306580
   82       -2.835056   0.000542
   83       -2.770965   0.000099
   84       -2.693371   0.000010
   85       -2.521051   0.000000
   86       -2.395234   0.000000
   87       -2.325984   0.000000
   88       -2.203819   0.000000
   89       -1.973156   0.000000
   90       -1.943184   0.000000
   91       -1.657226   0.000000
   92       -1.586661   0.000000
   93       -1.425752   0.000000
   94       -1.249745   0.000000
   95       -1.197698   0.000000
   96       -1.091797   0.000000
   97       -1.068811   0.000000
   98       -0.974699   0.000000
   99       -0.765458   0.000000
  100       -0.706644   0.000000
  101       -0.664249   0.000000
  102       -0.529141   0.000000
  103       -0.476159   0.000000
  104       -0.350052   0.000000
  105       -0.307036   0.000000
  106       -0.210714   0.000000
  107       -0.084689   0.000000
  108       -0.026179   0.000000
  109        0.131312   0.000000
  110        0.211640   0.000000
  111        0.254344   0.000000
  112        0.364379   0.000000
  113        0.507742   0.000000
  114        0.869597   0.000000
  115        1.149046   0.000000
  116        1.210650   0.000000
  117        1.409054   0.000000
  118        1.640772   0.000000
  119        1.835201   0.000000
  120        2.157745   0.000000
 
  0.1250000E+00  0.2775558E-16  0.0000000E+00  0.3125000E-01
    1      -17.779531   1.000000
    2      -16.806396   1.000000
    3      -16.684478   1.000000
    4      -16.657825   1.000000
    5      -16.538489   1.000000
    6      -16.392842   1.000000
    7      -16.344947   1.000000
    8      -16.260111   1.000000
    9      -16.207764   1.000000
   10      -16.133570   1.000000
   11      -16.013786   1.000000
   12      -15.944475   1.000000
   13      -15.826103   1.000000
   14      -15.720124   1.000000
   15      -15.594342   1.000000
   16      -15.524437   1.000000
   17      -15.371906   1.000000
   18      -15.340689   1.000000
   19       -9.231202   1.000000
   20       -9.135911   1.000000
   21       -8.990205   1.000000
   22       -8.903049   1.000000
   23       -8.828586   1.000000
   24       -8.730523   1.000000
   25       -8.692644   1.000000
   26       -8.574825   1.000000
   27       -8.516938   1.000000
   28       -8.416582   1.000000
   29       -8.317131   1.000000
   30       -8.275027   1.000000
   31       -8.235199   1.000000
   32       -8.161021   1.000000
   33       -8.045601   1.000000
   34       -7.994771   1.000000
   35       -7.818338   1.000000
   36       -7.732578   1.000000
   37       -7.648552   1.000000
   38       -7.551799   1.000000
   39       -7.515842   1.000000
   40       -7.420084   1.000000
   41       -7.287722   1.000000
   42       -7.214086   1.000000
   43       -7.144747   1.000000
   44       -7.021235   1.000000
   45       -6.934130   1.000000
   46       -6.831181   1.000000
   47       -6.725405   1.000000
   48       -6.661548   1.000000
   49       -6.615360   1.000000
   50       -6.466047   1.000000
   51       -6.419771   1.000000
   52       -6.370403   1.000000
   53       -6.307244   1.000000
   54       -6.225000   1.000000
   55       -6.168400   1.000000
   56       -6.050269   1.000000
   57       -5.986283   1.000000
   58       -5.893382   1.000000
   59       -5.761454   1.000000
   60       -5.630008   1.000000
   61       -5.503043   1.000000
   62       -5.428992   1.000000
   63       -5.392436   1.000000
   64       -5.233886   1.000000
   65       -5.081669   1.000000
   66       -5.008040   1.000000
   67       -4.987462   1.000000
   68       -4.838166   1.000000
   69       -4.779595   1.000000
   70       -4.728042   1.000000
   71       -4.657100   1.000000
   72       -4.524699   1.000000
   73       -4.490362   1.000000
   74       -4.230895   1.000000
   75       -4.110235   1.000000
   76       -4.062721   1.000000
   77       -3.755424   0.999403
   78       -3.694852   0.997538
   79       -3.545566   0.960486
   80       -3.314745   0.549423
   81       -3.170991   0.186119
   82       -2.822255   0.000392
   83       -2.733173   0.000033
   84       -2.680110   0.000006
   85       -2.531374   0.000000
   86       -2.383433   0.000000
   87       -2.298784   0.000000
   88       -2.167868   0.000000
   89       -1.962722   0.000000
   90       -1.936641   0.000000
   91       -1.660983   0.000000
   92       -1.580448   0.000000
   93       -1.430352   0.000000
   94       -1.253413   0.000000
   95       -1.201820   0.000000
   96       -1.095458   0.000000
   97       -1.075176   0.000000
   98       -0.959824   0.000000
   99       -0.788830   0.000000
  100       -0.780037   0.000000
  101       -0.699820   0.000000
  102       -0.624015   0.000000
  103       -0.525342   0.000000
  104       -0.437585   0.000000
  105       -0.364901   0.000000
  106       -0.316823   0.000000
  107       -0.088139   0.000000
  108        0.091319   0.000000
  109        0.157223   0.000000
  110        0.224414   0.000000
  111        0.305972   0.000000
  112        0.403363   0.000000
  113        0.586142   0.000000
  114        0.899726   0.000000
  115        1.120240   0.000000
  116        1.186472   0.000000
  117        1.346162   0.000000
  118        1.683937   0.000000
  119        1.874914   0.000000
  120        2.192763   0.000000
 
  0.2500000E+00  0.5551115E-16  0.0000000E+00  0.3125000E-01
    1      -17.705814   1.000000
    2      -16.983779   1.000000
    3      -16.730181   1.000000
    4      -16.698839   1.000000
    5      -16.585437   1.000000
    6      -16.367103   1.000000
    7      -16.331379   1.000000
    8      -16.223232   1.000000
    9      -16.144341   1.000000
   10      -16.103299   1.000000
   11      -15.935240   1.000000
   12      -15.864712   1.000000
   13      -15.806265   1.000000
   14      -15.736113   1.000000
   15      -15.607799   1.000000
   16      -15.563511   1.000000
   17      -15.374457   1.000000
   18      -15.352035   1.000000
   19       -9.494921   1.000000
   20       -9.186379   1.000000
   21       -9.093405   1.000000
   22       -8.981999   1.000000
   23       -8.959428   1.000000
   24       -8.805553   1.000000
   25       -8.655727   1.000000
   26       -8.528634   1.000000
   27       -8.483875   1.000000
   28       -8.418558   1.000000
   29       -8.267437   1.000000
   30       -8.187384   1.000000
   31       -8.132311   1.000000
   32       -8.060916   1.000000
   33       -7.934769   1.000000
   34       -7.804781   1.000000
   35       -7.776099   1.000000
   36       -7.689581   1.000000
   37       -7.653348   1.000000
   38       -7.528017   1.000000
   39       -7.477227   1.000000
   40       -7.390499   1.000000
   41       -7.288557   1.000000
   42       -7.165840   1.000000
   43       -7.094140   1.000000
   44       -7.069139   1.000000
   45       -6.919212   1.000000
   46       -6.829716   1.000000
   47       -6.721635   1.000000
   48       -6.634618   1.000000
   49       -6.559673   1.000000
   50       -6.440324   1.000000
   51       -6.417859   1.000000
   52       -6.399944   1.000000
   53       -6.269534   1.000000
   54       -6.247317   1.000000
   55       -6.162138   1.000000
   56       -6.112419   1.000000
   57       -5.964048   1.000000
   58       -5.860167   1.000000
   59       -5.757436   1.000000
   60       -5.712559   1.000000
   61       -5.662415   1.000000
   62       -5.488583   1.000000
   63       -5.435723   1.000000
   64       -5.366814   1.000000
   65       -5.268381   1.000000
   66       -4.980274   1.000000
   67       -4.905270   1.000000
   68       -4.836340   1.000000
   69       -4.795349   1.000000
   70       -4.729530   1.000000
   71       -4.642944   1.000000
   72       -4.453031   1.000000
   73       -4.387984   1.000000
   74       -4.316347   1.000000
   75       -4.067049   1.000000
   76       -3.956949   0.999998
   77       -3.899323   0.999990
   78       -3.852256   0.999957
   79       -3.556180   0.966480
   80       -3.204809   0.256827
   81       -3.104959   0.087041
   82       -2.799538   0.000217
   83       -2.671785   0.000005
   84       -2.619693   0.000001
   85       -2.559046   0.000000
   86       -2.352282   0.000000
   87       -2.233749   0.000000
   88       -2.066912   0.000000
   89       -1.981914   0.000000
   90       -1.863548   0.000000
   91       -1.660361   0.000000
   92       -1.568974   0.000000
   93       -1.441416   0.000000
   94       -1.287876   0.000000
   95       -1.240691   0.000000
   96       -1.115148   0.000000
   97       -1.080590   0.000000
   98       -0.960454   0.000000
   99       -0.919073   0.000000
  100       -0.885374   0.000000
  101       -0.788806   0.000000
  102       -0.737906   0.000000
  103       -0.670700   0.000000
  104       -0.595558   0.000000
  105       -0.423871   0.000000
  106       -0.377895   0.000000
  107       -0.148604   0.000000
  108        0.117614   0.000000
  109        0.143390   0.000000
  110        0.312022   0.000000
  111        0.429421   0.000000
  112        0.456826   0.000000
  113        0.756173   0.000000
  114        0.932265   0.000000
  115        1.094445   0.000000
  116        1.145149   0.000000
  117        1.236435   0.000000
  118        1.805602   0.000000
  119        1.988727   0.000000
  120        2.296685   0.000000
 
  0.3750000E+00  0.0000000E+00  0.0000000E+00  0.3125000E-01
    1      -17.589466   1.000000
    2      -17.194436   1.000000
    3      -16.754461   1.000000
    4      -16.718129   1.000000
    5      -16.614150   1.000000
    6      -16.357300   1.000000
    7      -16.347411   1.000000
    8      -16.203756   1.000000
    9      -16.057515   1.000000
   10      -16.036427   1.000000
   11      -15.907077   1.000000
   12      -15.830874   1.000000
   13      -15.781064   1.000000
   14      -15.742382   1.000000
   15      -15.646885   1.000000
   16      -15.555958   1.000000
   17      -15.379596   1.000000
   18      -15.367745   1.000000
   19       -9.708598   1.000000
   20       -9.301050   1.000000
   21       -9.117737   1.000000
   22       -9.065135   1.000000
   23       -8.944675   1.000000
   24       -8.868258   1.000000
   25       -8.568799   1.000000
   26       -8.477790   1.000000
   27       -8.455542   1.000000
   28       -8.354984   1.000000
   29       -8.268223   1.000000
   30       -8.207982   1.000000
   31       -8.153348   1.000000
   32       -8.030081   1.000000
   33       -7.892815   1.000000
   34       -7.850998   1.000000
   35       -7.770813   1.000000
   36       -7.668462   1.000000
   37       -7.628455   1.000000
   38       -7.463010   1.000000
   39       -7.336817   1.000000
   40       -7.285936   1.000000
   41       -7.190056   1.000000
   42       -7.125322   1.000000
   43       -7.101073   1.000000
   44       -6.957460   1.000000
   45       -6.855374   1.000000
   46       -6.780652   1.000000
   47       -6.692606   1.000000
   48       -6.645746   1.000000
   49       -6.522008   1.000000
   50       -6.490007   1.000000
   51       -6.402626   1.000000
   52       -6.368410   1.000000
   53       -6.295562   1.000000
   54       -6.228541   1.000000
   55       -6.126004   1.000000
   56       -6.078709   1.000000
   57       -5.962744   1.000000
   58       -5.920397   1.000000
   59       -5.857979   1.000000
   60       -5.781963   1.000000
   61       -5.697817   1.000000
   62       -5.678680   1.000000
   63       -5.564981   1.000000
   64       -5.467663   1.000000
   65       -5.264098   1.000000
   66       -4.978360   1.000000
   67       -4.893823   1.000000
   68       -4.829101   1.000000
   69       -4.785640   1.000000
   70       -4.751361   1.000000
   71       -4.658401   1.000000
   72       -4.557089   1.000000
   73       -4.401762   1.000000
   74       -4.199469   1.000000
   75       -4.096811   1.000000
   76       -3.993200   1.000000
   77       -3.901206   0.999990
   78       -3.804413   0.999833
   79       -3.548887   0.962449
   80       -3.143678   0.138868
   81       -3.059338   0.046304
   82       -2.765092   0.000084
   83       -2.651478   0.000002
   84       -2.630785   0.000001
   85       -2.496295   0.000000
   86       -2.302925   0.000000
   87       -2.178557   0.000000
   88       -1.998910   0.000000
   89       -1.925052   0.000000
   90       -1.791815   0.000000
   91       -1.651027   0.000000
   92       -1.539785   0.000000
   93       -1.476112   0.000000
   94       -1.372156   0.000000
   95       -1.317569   0.000000
   96       -1.158677   0.000000
   97       -1.120593   0.000000
   98       -1.050761   0.000000
   99       -0.992781   0.000000
  100       -0.936915   0.000000
  101       -0.879542   0.000000
  102       -0.824855   0.000000
  103       -0.749016   0.000000
  104       -0.622833   0.000000
  105       -0.498684   0.000000
  106       -0.419570   0.000000
  107       -0.209121   0.000000
  108        0.062048   0.000000
  109        0.124837   0.000000
  110        0.348911   0.000000
  111        0.484556   0.000000
  112        0.569610   0.000000
  113        0.808725   0.000000
  114        0.923513   0.000000
  115        1.122378   0.000000
  116        1.156994   0.000000
  117        1.194835   0.000000
  118        1.987049   0.000000
  119        2.165896   0.000000
  120        2.464313   0.000000
 
  0.5000000E+00  0.1110223E-15  0.0000000E+00  0.1562500E-01
    1      -17.484092   1.000000
    2      -17.333784   1.000000
    3      -16.765303   1.000000
    4      -16.723609   1.000000
    5      -16.621690   1.000000
    6      -16.358770   1.000000
    7      -16.352179   1.000000
    8      -16.200623   1.000000
    9      -16.018089   1.000000
   10      -15.972841   1.000000
   11      -15.918269   1.000000
   12      -15.853994   1.000000
   13      -15.766161   1.000000
   14      -15.727873   1.000000
   15      -15.682308   1.000000
   16      -15.533969   1.000000
   17      -15.384875   1.000000
   18      -15.374059   1.000000
   19       -9.785524   1.000000
   20       -9.342563   1.000000
   21       -9.147159   1.000000
   22       -9.098158   1.000000
   23       -8.893484   1.000000
   24       -8.887141   1.000000
   25       -8.531181   1.000000
   26       -8.470397   1.000000
   27       -8.444087   1.000000
   28       -8.304481   1.000000
   29       -8.277051   1.000000
   30       -8.236425   1.000000
   31       -8.155617   1.000000
   32       -8.035045   1.000000
   33       -7.928997   1.000000
   34       -7.843707   1.000000
   35       -7.823573   1.000000
   36       -7.710401   1.000000
   37       -7.573161   1.000000
   38       -7.421775   1.000000
   39       -7.316859   1.000000
   40       -7.201360   1.000000
   41       -7.157602   1.000000
   42       -7.076335   1.000000
   43       -7.007627   1.000000
   44       -6.952967   1.000000
   45       -6.802775   1.000000
   46       -6.764064   1.000000
   47       -6.690198   1.000000
   48       -6.633796   1.000000
   49       -6.579535   1.000000
   50       -6.490349   1.000000
   51       -6.387639   1.000000
   52       -6.302957   1.000000
   53       -6.290708   1.000000
   54       -6.243601   1.000000
   55       -6.169374   1.000000
   56       -6.065259   1.000000
   57       -5.984624   1.000000
   58       -5.934515   1.000000
   59       -5.884900   1.000000
   60       -5.830308   1.000000
   61       -5.748602   1.000000
   62       -5.648257   1.000000
   63       -5.579249   1.000000
   64       -5.495923   1.000000
   65       -5.229231   1.000000
   66       -5.182664   1.000000
   67       -4.915694   1.000000
   68       -4.837985   1.000000
   69       -4.795234   1.000000
   70       -4.740900   1.000000
   71       -4.629005   1.000000
   72       -4.566827   1.000000
   73       -4.386124   1.000000
   74       -4.170627   1.000000
   75       -4.116366   1.000000
   76       -4.007624   1.000000
   77       -3.877767   0.999980
   78       -3.768949   0.999575
   79       -3.542145   0.958378
   80       -3.130353   0.119070
   81       -3.037501   0.033164
   82       -2.735226   0.000035
   83       -2.676193   0.000006
   84       -2.634926   0.000001
   85       -2.455597   0.000000
   86       -2.273612   0.000000
   87       -2.158985   0.000000
   88       -1.990301   0.000000
   89       -1.861750   0.000000
   90       -1.764899   0.000000
   91       -1.658667   0.000000
   92       -1.506068   0.000000
   93       -1.474712   0.000000
   94       -1.446511   0.000000
   95       -1.365108   0.000000
   96       -1.190099   0.000000
   97       -1.165901   0.000000
   98       -1.086312   0.000000
   99       -1.013872   0.000000
  100       -0.964318   0.000000
  101       -0.870169   0.000000
  102       -0.859731   0.000000
  103       -0.767639   0.000000
  104       -0.622941   0.000000
  105       -0.541294   0.000000
  106       -0.438610   0.000000
  107       -0.226011   0.000000
  108        0.033603   0.000000
  109        0.110872   0.000000
  110        0.363576   0.000000
  111        0.493229   0.000000
  112        0.625641   0.000000
  113        0.754229   0.000000
  114        0.967419   0.000000
  115        1.110734   0.000000
  116        1.161898   0.000000
  117        1.224259   0.000000
  118        2.177160   0.000000
  119        2.271843   0.000000
  120        2.377816   0.000000
 
  0.0000000E+00  0.1250000E+00  0.0000000E+00  0.3125000E-01
    1      -17.779014   1.000000
    2      -16.788227   1.000000
    3      -16.749701   1.000000
    4      -16.573970   1.000000
    5      -16.557731   1.000000
    6      -16.390482   1.000000
    7      -16.356144   1.000000
    8      -16.321824   1.000000
    9      -16.181436   1.000000
   10      -16.087281   1.000000
   11      -16.023700   1.000000
   12      -15.965348   1.000000
   13      -15.819083   1.000000
   14      -15.713231   1.000000
   15      -15.590120   1.000000
   16      -15.516909   1.000000
   17      -15.395448   1.000000
   18      -15.332092   1.000000
   19       -9.202655   1.000000
   20       -9.131061   1.000000
   21       -9.003987   1.000000
   22       -8.992370   1.000000
   23       -8.781697   1.000000
   24       -8.723848   1.000000
   25       -8.637369   1.000000
   26       -8.556260   1.000000
   27       -8.498231   1.000000
   28       -8.429654   1.000000
   29       -8.362591   1.000000
   30       -8.300626   1.000000
   31       -8.276671   1.000000
   32       -8.139362   1.000000
   33       -8.041710   1.000000
   34       -7.950956   1.000000
   35       -7.860359   1.000000
   36       -7.720520   1.000000
   37       -7.644678   1.000000
   38       -7.615776   1.000000
   39       -7.441375   1.000000
   40       -7.375556   1.000000
   41       -7.318772   1.000000
   42       -7.214847   1.000000
   43       -7.154095   1.000000
   44       -6.994686   1.000000
   45       -6.945607   1.000000
   46       -6.851834   1.000000
   47       -6.772978   1.000000
   48       -6.640374   1.000000
   49       -6.622985   1.000000
   50       -6.530453   1.000000
   51       -6.435001   1.000000
   52       -6.367041   1.000000
   53       -6.276129   1.000000
   54       -6.194113   1.000000
   55       -6.122862   1.000000
   56       -6.070076   1.000000
   57       -5.971295   1.000000
   58       -5.894398   1.000000
   59       -5.750989   1.000000
   60       -5.574915   1.000000
   61       -5.540595   1.000000
   62       -5.387187   1.000000
   63       -5.331281   1.000000
   64       -5.214695   1.000000
   65       -5.153314   1.000000
   66       -5.092178   1.000000
   67       -5.015395   1.000000
   68       -4.903661   1.000000
   69       -4.771583   1.000000
   70       -4.733484   1.000000
   71       -4.595263   1.000000
   72       -4.534065   1.000000
   73       -4.459862   1.000000
   74       -4.170425   1.000000
   75       -4.123185   1.000000
   76       -4.013738   1.000000
   77       -3.805077   0.999836
   78       -3.668166   0.995645
   79       -3.561552   0.969216
   80       -3.363626   0.680767
   81       -3.137607   0.129587
   82       -2.819884   0.000369
   83       -2.770605   0.000098
   84       -2.678664   0.000006
   85       -2.538394   0.000000
   86       -2.376061   0.000000
   87       -2.290475   0.000000
   88       -2.183476   0.000000
   89       -1.988962   0.000000
   90       -1.911046   0.000000
   91       -1.658430   0.000000
   92       -1.593693   0.000000
   93       -1.435328   0.000000
   94       -1.234128   0.000000
   95       -1.222706   0.000000
   96       -1.088681   0.000000
   97       -1.039159   0.000000
   98       -0.975584   0.000000
   99       -0.802123   0.000000
  100       -0.740776   0.000000
  101       -0.705382   0.000000
  102       -0.586751   0.000000
  103       -0.542256   0.000000
  104       -0.390509   0.000000
  105       -0.367136   0.000000
  106       -0.276042   0.000000
  107       -0.133722   0.000000
  108        0.018326   0.000000
  109        0.094113   0.000000
  110        0.201418   0.000000
  111        0.316307   0.000000
  112        0.418814   0.000000
  113        0.568420   0.000000
  114        0.906919   0.000000
  115        1.116118   0.000000
  116        1.211861   0.000000
  117        1.412857   0.000000
  118        1.685584   0.000000
  119        1.873466   0.000000
  120        2.193036   0.000000
 
  0.1250000E+00  0.1250000E+00  0.0000000E+00  0.3125000E-01
    1      -17.729463   1.000000
    2      -16.879521   1.000000
    3      -16.836498   1.000000
    4      -16.661719   1.000000
    5      -16.501461   1.000000
    6      -16.392096   1.000000
    7      -16.331719   1.000000
    8      -16.282020   1.000000
    9      -16.154069   1.000000
   10      -16.070574   1.000000
   11      -15.954842   1.000000
   12      -15.926278   1.000000
   13      -15.802425   1.000000
   14      -15.710505   1.000000
   15      -15.609995   1.000000
   16      -15.545547   1.000000
   17      -15.404088   1.000000
   18      -15.328957   1.000000
   19       -9.382603   1.000000
   20       -9.234668   1.000000
   21       -9.103063   1.000000
   22       -9.055938   1.000000
   23       -8.788483   1.000000
   24       -8.726338   1.000000
   25       -8.664038   1.000000
   26       -8.539211   1.000000
   27       -8.495897   1.000000
   28       -8.386977   1.000000
   29       -8.293514   1.000000
   30       -8.231489   1.000000
   31       -8.183152   1.000000
   32       -8.054601   1.000000
   33       -7.973999   1.000000
   34       -7.902303   1.000000
   35       -7.788214   1.000000
   36       -7.720041   1.000000
   37       -7.646550   1.000000
   38       -7.549255   1.000000
   39       -7.468514   1.000000
   40       -7.363106   1.000000
   41       -7.318220   1.000000
   42       -7.202315   1.000000
   43       -7.112285   1.000000
   44       -7.021670   1.000000
   45       -6.943495   1.000000
   46       -6.853685   1.000000
   47       -6.762125   1.000000
   48       -6.615188   1.000000
   49       -6.549267   1.000000
   50       -6.491868   1.000000
   51       -6.418508   1.000000
   52       -6.357241   1.000000
   53       -6.267612   1.000000
   54       -6.228787   1.000000
   55       -6.194850   1.000000
   56       -6.068368   1.000000
   57       -6.001177   1.000000
   58       -5.873577   1.000000
   59       -5.728621   1.000000
   60       -5.682904   1.000000
   61       -5.586464   1.000000
   62       -5.460623   1.000000
   63       -5.357629   1.000000
   64       -5.253449   1.000000
   65       -5.214143   1.000000
   66       -5.128933   1.000000
   67       -5.044329   1.000000
   68       -4.924605   1.000000
   69       -4.747128   1.000000
   70       -4.662129   1.000000
   71       -4.574565   1.000000
   72       -4.548286   1.000000
   73       -4.390662   1.000000
   74       -4.205359   1.000000
   75       -4.077994   1.000000
   76       -3.989327   1.000000
   77       -3.902334   0.999991
   78       -3.780405   0.999683
   79       -3.559009   0.967945
   80       -3.257734   0.390152
   81       -3.103775   0.085722
   82       -2.790231   0.000169
   83       -2.730223   0.000030
   84       -2.633432   0.000001
   85       -2.557622   0.000000
   86       -2.370424   0.000000
   87       -2.253669   0.000000
   88       -2.100050   0.000000
   89       -1.969806   0.000000
   90       -1.896762   0.000000
   91       -1.660516   0.000000
   92       -1.576927   0.000000
   93       -1.454087   0.000000
   94       -1.262155   0.000000
   95       -1.236906   0.000000
   96       -1.107548   0.000000
   97       -1.021267   0.000000
   98       -0.957092   0.000000
   99       -0.863509   0.000000
  100       -0.852354   0.000000
  101       -0.729953   0.000000
  102       -0.718994   0.000000
  103       -0.617351   0.000000
  104       -0.548717   0.000000
  105       -0.480210   0.000000
  106       -0.322022   0.000000
  107       -0.132088   0.000000
  108        0.041460   0.000000
  109        0.149370   0.000000
  110        0.271156   0.000000
  111        0.366160   0.000000
  112        0.449494   0.000000
  113        0.719454   0.000000
  114        0.943946   0.000000
  115        1.040936   0.000000
  116        1.183822   0.000000
  117        1.338103   0.000000
  118        1.767549   0.000000
  119        1.950120   0.000000
  120        2.262530   0.000000
 
  0.2500000E+00  0.1250000E+00  0.0000000E+00  0.3125000E-01
    1      -17.633568   1.000000
    2      -17.079113   1.000000
    3      -16.898923   1.000000
    4      -16.678499   1.000000
    5      -16.496583   1.000000
    6      -16.371915   1.000000
    7      -16.328640   1.000000
    8      -16.235043   1.000000
    9      -16.117271   1.000000
   10      -16.035429   1.000000
   11      -15.928674   1.000000
   12      -15.839244   1.000000
   13      -15.774708   1.000000
   14      -15.736838   1.000000
   15      -15.636214   1.000000
   16      -15.556421   1.000000
   17      -15.415353   1.000000
   18      -15.330389   1.000000
   19       -9.615270   1.000000
   20       -9.379159   1.000000
   21       -9.185474   1.000000
   22       -9.016546   1.000000
   23       -8.875596   1.000000
   24       -8.705229   1.000000
   25       -8.604269   1.000000
   26       -8.482068   1.000000
   27       -8.431352   1.000000
   28       -8.399653   1.000000
   29       -8.256949   1.000000
   30       -8.200983   1.000000
   31       -8.177578   1.000000
   32       -8.062295   1.000000
   33       -7.934535   1.000000
   34       -7.880854   1.000000
   35       -7.796584   1.000000
   36       -7.671829   1.000000
   37       -7.589167   1.000000
   38       -7.517213   1.000000
   39       -7.408013   1.000000
   40       -7.327947   1.000000
   41       -7.207821   1.000000
   42       -7.143107   1.000000
   43       -7.052478   1.000000
   44       -7.002174   1.000000
   45       -6.886806   1.000000
   46       -6.818034   1.000000
   47       -6.722614   1.000000