<?xml version="1.0" encoding="ISO-8859-1"?>
<modeling>
 <generator>
  <i name="program" type="string">vasp </i>
  <i name="version" type="string">5.4.1  </i>
  <i name="subversion" type="string">05Feb16 (build Jul 05 2020 17:13:04) complex                          parallel </i>
  <i name="platform" type="string">IFC91_ompi </i>
  <i name="date" type="string">2024 07 19 </i>
  <i name="time" type="string">02:15:30 </i>
 </generator>
 <incar>
  <i type="int" name="ISTART">     0</i>
  <i type="string" name="PREC">normal</i>
  <i type="string" name="ALGO"> Normal</i>
  <i type="int" name="ISPIN">     1</i>
  <i type="int" name="ICHARG">     2</i>
  <i type="int" name="IBRION">     1</i>
  <i type="int" name="NSW">   100</i>
  <i type="int" name="ISIF">     3</i>
  <i type="int" name="ISYM">     0</i>
  <i name="SYMPREC">      0.00000001</i>
  <i name="POTIM">      0.50000000</i>
  <i type="logical" name="LREAL"> F  </i>
  <i type="logical" name="LPLANE"> F  </i>
  <i type="int" name="ISMEAR">     0</i>
  <i type="logical" name="LWAVE"> F  </i>
  <i type="logical" name="LCHARG"> F  </i>
  <v type="int" name="KPOINT_BSE">    -1     0     0     0</v>
 </incar>
 <kpoints>
  <generation param="Gamma">
   <v type="int" name="divisions">       8        8        1 </v>
   <v name="usershift">      0.00000000       0.00000000       0.00000000 </v>
   <v name="genvec1">      0.12500000       0.00000000       0.00000000 </v>
   <v name="genvec2">     -0.00000000       0.12500000       0.00000000 </v>
   <v name="genvec3">      0.00000000       0.00000000       1.00000000 </v>
   <v name="shift">      0.00000000       0.00000000       0.00000000 </v>
  </generation>
  <varray name="kpointlist" >
   <v>       0.00000000       0.00000000       0.00000000 </v>
   <v>       0.12500000       0.00000000       0.00000000 </v>
   <v>       0.25000000       0.00000000       0.00000000 </v>
   <v>       0.37500000       0.00000000       0.00000000 </v>
   <v>       0.50000000       0.00000000       0.00000000 </v>
   <v>       0.00000000       0.12500000       0.00000000 </v>
   <v>       0.12500000       0.12500000       0.00000000 </v>
   <v>       0.25000000       0.12500000       0.00000000 </v>
   <v>       0.37500000       0.12500000       0.00000000 </v>
   <v>       0.50000000       0.12500000       0.00000000 </v>
   <v>      -0.37500000       0.12500000       0.00000000 </v>
   <v>      -0.25000000       0.12500000       0.00000000 </v>
   <v>      -0.12500000       0.12500000       0.00000000 </v>
   <v>       0.00000000       0.25000000       0.00000000 </v>
   <v>       0.12500000       0.25000000       0.00000000 </v>
   <v>       0.25000000       0.25000000       0.00000000 </v>
   <v>       0.37500000       0.25000000       0.00000000 </v>
   <v>       0.50000000       0.25000000       0.00000000 </v>
   <v>      -0.37500000       0.25000000       0.00000000 </v>
   <v>      -0.25000000       0.25000000       0.00000000 </v>
   <v>      -0.12500000       0.25000000       0.00000000 </v>
   <v>      -0.00000000       0.37500000       0.00000000 </v>
   <v>       0.12500000       0.37500000       0.00000000 </v>
   <v>       0.25000000       0.37500000       0.00000000 </v>
   <v>       0.37500000       0.37500000       0.00000000 </v>
   <v>       0.50000000       0.37500000       0.00000000 </v>
   <v>      -0.37500000       0.37500000       0.00000000 </v>
   <v>      -0.25000000       0.37500000       0.00000000 </v>
   <v>      -0.12500000       0.37500000       0.00000000 </v>
   <v>       0.00000000       0.50000000       0.00000000 </v>
   <v>       0.12500000       0.50000000       0.00000000 </v>
   <v>       0.25000000       0.50000000       0.00000000 </v>
   <v>       0.37500000       0.50000000       0.00000000 </v>
   <v>       0.50000000       0.50000000       0.00000000 </v>
  </varray>
  <varray name="weights" >
   <v>       0.01562500 </v>
   <v>       0.03125000 </v>
   <v>       0.03125000 </v>
   <v>       0.03125000 </v>
   <v>       0.01562500 </v>
   <v>       0.03125000 </v>
   <v>       0.03125000 </v>
   <v>       0.03125000 </v>
   <v>       0.03125000 </v>
   <v>       0.03125000 </v>
   <v>       0.03125000 </v>
   <v>       0.03125000 </v>
   <v>       0.03125000 </v>
   <v>       0.03125000 </v>
   <v>       0.03125000 </v>
   <v>       0.03125000 </v>
   <v>       0.03125000 </v>
   <v>       0.03125000 </v>
   <v>       0.03125000 </v>
   <v>       0.03125000 </v>
   <v>       0.03125000 </v>
   <v>       0.03125000 </v>
   <v>       0.03125000 </v>
   <v>       0.03125000 </v>
   <v>       0.03125000 </v>
   <v>       0.03125000 </v>
   <v>       0.03125000 </v>
   <v>       0.03125000 </v>
   <v>       0.03125000 </v>
   <v>       0.01562500 </v>
   <v>       0.03125000 </v>
   <v>       0.03125000 </v>
   <v>       0.03125000 </v>
   <v>       0.01562500 </v>
  </varray>
 </kpoints>
 <parameters>
  <separator name="general" >
   <i type="string" name="SYSTEM">unknown system</i>
   <i type="logical" name="LCOMPAT"> F  </i>
  </separator>
  <separator name="electronic" >
   <i type="string" name="PREC">normal</i>
   <i name="ENMAX">    280.00000000</i>
   <i name="ENAUG">    373.43800000</i>
   <i name="EDIFF">      0.00010000</i>
   <i type="int" name="IALGO">    38</i>
   <i type="int" name="IWAVPR">    11</i>
   <i type="int" name="NBANDS">   120</i>
   <i name="NELECT">    159.00000000</i>
   <i type="int" name="TURBO">     0</i>
   <i type="int" name="IRESTART">     0</i>
   <i type="int" name="NREBOOT">     0</i>
   <i type="int" name="NMIN">     0</i>
   <i name="EREF">      0.00000000</i>
   <separator name="electronic smearing" >
    <i type="int" name="ISMEAR">     0</i>
    <i name="SIGMA">      0.20000000</i>
    <i name="KSPACING">      0.50000000</i>
    <i type="logical" name="KGAMMA"> T  </i>
   </separator>
   <separator name="electronic projectors" >
    <i type="logical" name="LREAL"> F  </i>
    <v name="ROPT">      0.00000000      0.00000000      0.00000000      0.00000000</v>
    <i type="int" name="LMAXPAW">  -100</i>
    <i type="int" name="LMAXMIX">     2</i>
    <i type="logical" name="NLSPLINE"> F  </i>
   </separator>
   <separator name="electronic startup" >
    <i type="int" name="ISTART">     0</i>
    <i type="int" name="ICHARG">     2</i>
    <i type="int" name="INIWAV">     1</i>
   </separator>
   <separator name="electronic spin" >
    <i type="int" name="ISPIN">     1</i>
    <i type="logical" name="LNONCOLLINEAR"> F  </i>
    <v name="MAGMOM">      1.00000000      1.00000000      1.00000000      1.00000000      1.00000000      1.00000000      1.00000000      1.00000000      1.00000000      1.00000000      1.00000000      1.00000000      1.00000000      1.00000000      1.00000000      1.00000000      1.00000000      1.00000000      1.00000000      1.00000000
      1.00000000      1.00000000      1.00000000      1.00000000      1.00000000      1.00000000      1.00000000</v>
    <i name="NUPDOWN">     -1.00000000</i>
    <i type="logical" name="LSORBIT"> F  </i>
    <v name="SAXIS">      0.00000000      0.00000000      1.00000000</v>
    <i type="logical" name="LSPIRAL"> F  </i>
    <v name="QSPIRAL">      0.00000000      0.00000000      0.00000000</v>
    <i type="logical" name="LZEROZ"> F  </i>
   </separator>
   <separator name="electronic exchange-correlation" >
    <i type="logical" name="LASPH"> F  </i>
    <i type="logical" name="LMETAGGA"> F  </i>
   </separator>
   <separator name="electronic convergence" >
    <i type="int" name="NELM">    60</i>
    <i type="int" name="NELMDL">    -5</i>
    <i type="int" name="NELMIN">     2</i>
    <i name="ENINI">    280.00000000</i>
    <separator name="electronic convergence detail" >
     <i type="logical" name="LDIAG"> T  </i>
     <i type="logical" name="LSUBROT"> F  </i>
     <i name="WEIMIN">      0.00100000</i>
     <i name="EBREAK">      0.00000021</i>
     <i name="DEPER">      0.30000000</i>
     <i type="int" name="NRMM">     4</i>
     <i name="TIME">      0.40000000</i>
    </separator>
   </separator>
   <separator name="electronic mixer" >
    <i name="AMIX">      0.40000000</i>
    <i name="BMIX">      1.00000000</i>
    <i name="AMIN">      0.10000000</i>
    <i name="AMIX_MAG">      1.60000000</i>
    <i name="BMIX_MAG">      1.00000000</i>
    <separator name="electronic mixer details" >
     <i type="int" name="IMIX">     4</i>
     <i type="logical" name="MIXFIRST"> F  </i>
     <i type="int" name="MAXMIX">   -45</i>
     <i name="WC">    100.00000000</i>
     <i type="int" name="INIMIX">     1</i>
     <i type="int" name="MIXPRE">     1</i>
     <i type="int" name="MREMOVE">     5</i>
    </separator>
   </separator>
   <separator name="electronic dipolcorrection" >
    <i type="logical" name="LDIPOL"> F  </i>
    <i type="logical" name="LMONO"> F  </i>
    <i type="int" name="IDIPOL">     0</i>
    <i name="EPSILON">      1.00000000</i>
    <v name="DIPOL">   -100.00000000   -100.00000000   -100.00000000</v>
    <i name="EFIELD">      0.00000000</i>
   </separator>
  </separator>
  <separator name="grids" >
   <i type="int" name="NGX">    42</i>
   <i type="int" name="NGY">    42</i>
   <i type="int" name="NGZ">   126</i>
   <i type="int" name="NGXF">    84</i>
   <i type="int" name="NGYF">    84</i>
   <i type="int" name="NGZF">   252</i>
   <i type="logical" name="ADDGRID"> F  </i>
  </separator>
  <separator name="ionic" >
   <i type="int" name="NSW">   100</i>
   <i type="int" name="IBRION">     1</i>
   <i type="int" name="ISIF">     3</i>
   <i name="PSTRESS">      0.00000000</i>
   <i name="EDIFFG">      0.00100000</i>
   <i type="int" name="NFREE">     0</i>
   <i name="POTIM">      0.50000000</i>
   <i name="SMASS">     -3.00000000</i>
   <i name="SCALEE">      1.00000000</i>
  </separator>
  <separator name="ionic md" >
   <i name="TEBEG">      0.00010000</i>
   <i name="TEEND">      0.00010000</i>
   <i type="int" name="NBLOCK">     1</i>
   <i type="int" name="KBLOCK">   100</i>
   <i type="int" name="NPACO">   256</i>
   <i name="APACO">     16.00000000</i>
  </separator>
  <separator name="symmetry" >
   <i type="int" name="ISYM">     0</i>
   <i name="SYMPREC">      0.00000001</i>
  </separator>
  <separator name="dos" >
   <i type="logical" name="LORBIT"> F  </i>
   <v name="RWIGS">     -1.00000000     -1.00000000     -1.00000000     -1.00000000</v>
   <i type="int" name="NEDOS">   301</i>
   <i name="EMIN">     10.00000000</i>
   <i name="EMAX">    -10.00000000</i>
   <i name="EFERMI">      0.00000000</i>
  </separator>
  <separator name="writing" >
   <i type="int" name="NWRITE">     2</i>
   <i type="logical" name="LWAVE"> F  </i>
   <i type="logical" name="LCHARG"> F  </i>
   <i type="logical" name="LPARD"> F  </i>
   <i type="logical" name="LVTOT"> F  </i>
   <i type="logical" name="LVHAR"> F  </i>
   <i type="logical" name="LELF"> F  </i>
   <i type="logical" name="LOPTICS"> F  </i>
   <v name="STM">      0.00000000      0.00000000      0.00000000      0.00000000      0.00000000      0.00000000      0.00000000</v>
  </separator>
  <separator name="performance" >
   <i type="int" name="NPAR">    40</i>
   <i type="int" name="NSIM">     4</i>
   <i type="int" name="NBLK">    -1</i>
   <i type="logical" name="LPLANE"> F  </i>
   <i type="logical" name="LSCALAPACK"> T  </i>
   <i type="logical" name="LSCAAWARE"> F  </i>
   <i type="logical" name="LSCALU"> F  </i>
   <i type="logical" name="LASYNC"> F  </i>
   <i type="logical" name="LORBITALREAL"> F  </i>
  </separator>
  <separator name="miscellaneous" >
   <i type="int" name="IDIOT">     3</i>
   <i type="logical" name="LMUSIC"> F  </i>
   <v name="POMASS">     50.94100000     95.94000000    183.85000000     32.06600000</v>
   <v name="DARWINR">      0.00000000      0.00000000      0.00000000      0.00000000</v>
   <v name="DARWINV">      1.00000000      1.00000000      1.00000000      1.00000000</v>
   <i type="logical" name="LCORR"> T  </i>
  </separator>
  <i type="logical" name="GGA_COMPAT"> T  </i>
  <i type="logical" name="LBERRY"> F  </i>
  <i type="int" name="ICORELEVEL">     0</i>
  <i type="logical" name="LDAU"> F  </i>
  <i type="int" name="I_CONSTRAINED_M">     0</i>
  <separator name="electronic exchange-correlation" >
   <i type="string" name="GGA">--</i>
   <i type="int" name="VOSKOWN">     0</i>
   <i type="logical" name="LHFCALC"> F  </i>
   <i type="string" name="PRECFOCK"></i>
   <i type="logical" name="LSYMGRAD"> F  </i>
   <i type="logical" name="LHFONE"> F  </i>
   <i type="logical" name="LRHFCALC"> F  </i>
   <i type="logical" name="LTHOMAS"> F  </i>
   <i type="logical" name="LMODELHF"> F  </i>
   <i name="ENCUT4O">     -1.00000000</i>
   <i type="int" name="EXXOEP">     0</i>
   <i type="int" name="FOURORBIT">     0</i>
   <i name="AEXX">      0.00000000</i>
   <i name="HFALPHA">      0.00000000</i>
   <i name="MCALPHA">      0.00000000</i>
   <i name="ALDAX">      1.00000000</i>
   <i name="AGGAX">      1.00000000</i>
   <i name="ALDAC">      1.00000000</i>
   <i name="AGGAC">      1.00000000</i>
   <i type="int" name="NKREDX">     1</i>
   <i type="int" name="NKREDY">     1</i>
   <i type="int" name="NKREDZ">     1</i>
   <i type="logical" name="SHIFTRED"> F  </i>
   <i type="logical" name="ODDONLY"> F  </i>
   <i type="logical" name="EVENONLY"> F  </i>
   <i type="int" name="LMAXFOCK">     0</i>
   <i type="int" name="NMAXFOCKAE">     0</i>
   <i type="logical" name="LFOCKAEDFT"> F  </i>
   <i name="HFSCREEN">      0.00000000</i>
   <i name="HFSCREENC">      0.00000000</i>
   <i type="int" name="NBANDSGWLOW">     0</i>
  </separator>
  <separator name="vdW DFT" >
   <i type="logical" name="LUSE_VDW"> F  </i>
   <i name="Zab_VDW">     -0.84910000</i>
   <i name="PARAM1">      0.12340000</i>
   <i name="PARAM2">      1.00000000</i>
   <i name="PARAM3">      0.00000000</i>
  </separator>
  <separator name="model GW" >
   <i type="int" name="MODEL_GW">     0</i>
   <i name="MODEL_EPS0">     58.26239943</i>
   <i name="MODEL_ALPHA">      1.00000000</i>
  </separator>
  <separator name="linear response parameters" >
   <i type="logical" name="LEPSILON"> F  </i>
   <i type="logical" name="LRPA"> F  </i>
   <i type="logical" name="LNABLA"> F  </i>
   <i type="logical" name="LVEL"> F  </i>
   <i type="int" name="KINTER">     0</i>
   <i name="CSHIFT">      0.10000000</i>
   <i name="OMEGAMAX">     -1.00000000</i>
   <i name="DEG_THRESHOLD">      0.00200000</i>
  </separator>
  <separator name="orbital magnetization" >
   <i type="logical" name="NUCIND"> F  </i>
   <v name="MAGPOS">      0.00000000      0.00000000      0.00000000</v>
   <i type="logical" name="LNICSALL"> T  </i>
   <i type="logical" name="ORBITALMAG"> F  </i>
   <i type="logical" name="LMAGBLOCH"> F  </i>
   <i type="logical" name="LCHIMAG"> F  </i>
   <i type="logical" name="LGAUGE"> T  </i>
   <i type="int" name="MAGATOM">     0</i>
   <v name="MAGDIPOL">      0.00000000      0.00000000      0.00000000</v>
   <v name="AVECCONST">      0.00000000      0.00000000      0.00000000</v>
  </separator>
  <separator name="response functions" >
   <i type="logical" name="LADDER"> F  </i>
   <i type="logical" name="LFXC"> F  </i>
   <i type="logical" name="LHARTREE"> T  </i>
   <i type="int" name="IBSE">     0</i>
   <v type="int" name="KPOINT">    -1     0     0     0</v>
   <i type="logical" name="LTCTE"> F  </i>
   <i type="logical" name="LTETE"> F  </i>
   <i type="logical" name="LTRIPLET"> F  </i>
   <i type="logical" name="LFXCEPS"> F  </i>
   <i type="logical" name="LFXHEG"> F  </i>
   <i type="int" name="NATURALO">     0</i>
   <i type="logical" name="L2ORDER"> F  </i>
   <i type="logical" name="LUSEW"> F  </i>
   <i name="ENCUTGW">     -2.00000000</i>
   <i name="ENCUTGWSOFT">     -2.00000000</i>
   <i name="ENCUTLF">     -1.00000000</i>
   <i type="int" name="LMAXMP2">    -1</i>
   <i name="SCISSOR">      0.00000000</i>
   <i type="int" name="NOMEGA">     0</i>
   <i type="int" name="NOMEGAR">     0</i>
   <i type="int" name="NBANDSGW">    -1</i>
   <i type="int" name="NBANDSO">    -1</i>
   <i type="int" name="NBANDSV">    -1</i>
   <i type="int" name="NELM">     1</i>
   <i type="int" name="NELMHF">     1</i>
   <i type="int" name="DIM">     3</i>
   <i type="int" name="ANTIRES">     0</i>
   <i name="OMEGAMAX">    -30.00000000</i>
   <i name="OMEGAMIN">    -30.00000000</i>
   <i name="OMEGATL">   -200.00000000</i>
   <i type="int" name="OMEGAGRID">     0</i>
   <i name="CSHIFT">     -0.10000000</i>
   <i type="logical" name="SELFENERGY"> F  </i>
   <i type="logical" name="LSPECTRAL"> F  </i>
   <i type="logical" name="LSPECTRALGW"> F  </i>
   <i type="logical" name="LSINGLES"> F  </i>
   <i type="logical" name="LFERMIGW"> F  </i>
   <i type="logical" name="ODDONLYGW"> F  </i>
   <i type="logical" name="EVENONLYGW"> F  </i>
   <i type="int" name="NKREDLFX">     1</i>
   <i type="int" name="NKREDLFY">     1</i>
   <i type="int" name="NKREDLFZ">     1</i>
   <i type="int" name="MAXMEM">  1800</i>
   <i type="int" name="TELESCOPE">     0</i>
   <i type="int" name="TAUPAR">     1</i>
   <i type="int" name="OMEGAPAR">    -1</i>
   <i name="LAMBDA">      1.00000000</i>
  </separator>
  <separator name="External order field" >
   <i name="OFIELD_KAPPA">      0.00000000</i>
   <v name="OFIELD_K">      0.00000000      0.00000000      0.00000000</v>
   <i name="OFIELD_Q6_NEAR">      0.00000000</i>
   <i name="OFIELD_Q6_FAR">      0.00000000</i>
   <i name="OFIELD_A">      0.00000000</i>
  </separator>
 </parameters>
 <atominfo>
  <atoms>      27 </atoms>
  <types>       4 </types>
  <array name="atoms" >
   <dimension dim="1">ion</dimension>
   <field type="string">element</field>
   <field type="int">atomtype</field>
   <set>
    <rc><c>V </c><c>   1</c></rc>
    <rc><c>V </c><c>   1</c></rc>
    <rc><c>V </c><c>   1</c></rc>
    <rc><c>Mo</c><c>   2</c></rc>
    <rc><c>Mo</c><c>   2</c></rc>
    <rc><c>Mo</c><c>   2</c></rc>
    <rc><c>W </c><c>   3</c></rc>
    <rc><c>W </c><c>   3</c></rc>
    <rc><c>W </c><c>   3</c></rc>
    <rc><c>S </c><c>   4</c></rc>
    <rc><c>S </c><c>   4</c></rc>
    <rc><c>S </c><c>   4</c></rc>
    <rc><c>S </c><c>   4</c></rc>
    <rc><c>S </c><c>   4</c></rc>
    <rc><c>S </c><c>   4</c></rc>
    <rc><c>S </c><c>   4</c></rc>
    <rc><c>S </c><c>   4</c></rc>
    <rc><c>S </c><c>   4</c></rc>
    <rc><c>S </c><c>   4</c></rc>
    <rc><c>S </c><c>   4</c></rc>
    <rc><c>S </c><c>   4</c></rc>
    <rc><c>S </c><c>   4</c></rc>
    <rc><c>S </c><c>   4</c></rc>
    <rc><c>S </c><c>   4</c></rc>
    <rc><c>S </c><c>   4</c></rc>
    <rc><c>S </c><c>   4</c></rc>
    <rc><c>S </c><c>   4</c></rc>
   </set>
  </array>
  <array name="atomtypes" >
   <dimension dim="1">type</dimension>
   <field type="int">atomspertype</field>
   <field type="string">element</field>
   <field>mass</field>
   <field>valence</field>
   <field type="string">pseudopotential</field>
   <set>
    <rc><c>   3</c><c>V </c><c>     50.94100000</c><c>      5.00000000</c><c> PAW_PBE V 08Apr2002                    </c></rc>
    <rc><c>   3</c><c>Mo</c><c>     95.94000000</c><c>      6.00000000</c><c> PAW_PBE Mo 08Apr2002                   </c></rc>
    <rc><c>   3</c><c>W </c><c>    183.85000000</c><c>      6.00000000</c><c> PAW_PBE W 08Apr2002                    </c></rc>
    <rc><c>  18</c><c>S </c><c>     32.06600000</c><c>      6.00000000</c><c>  PAW_PBE S 17Jan2003                   </c></rc>
   </set>
  </array>
 </atominfo>
 <structure name="initialpos" >
  <crystal>
   <varray name="basis" >
    <v>       8.66999996       5.03999989       0.00000000 </v>
    <v>      -8.66999982       5.04000013       0.00000000 </v>
    <v>       0.00000000       0.00000000      30.00000000 </v>
   </varray>
   <i name="volume">   2621.80797419 </i>
   <varray name="rec_basis" >
    <v>       0.05767013       0.09920635       0.00000000 </v>
    <v>      -0.05767013       0.09920635       0.00000000 </v>
    <v>       0.00000000       0.00000000       0.03333333 </v>
   </varray>
  </crystal>
  <varray name="positions" >
   <v>       0.33333334       0.33333334       0.00000000 </v>
   <v>       0.00000000       0.00000000       0.00000000 </v>
   <v>       0.33333334       0.66666669       0.00000000 </v>
   <v>       0.00000000       0.66666669       0.00000000 </v>
   <v>       0.66666669       0.66666669       0.00000000 </v>
   <v>       1.00000000       0.33333334       0.00000000 </v>
   <v>       0.33333334       0.00000000       0.00000000 </v>
   <v>       0.66666669       0.00000000       0.00000000 </v>
   <v>       0.66666669       0.33333334       0.00000000 </v>
   <v>       0.11068511       0.22244981       0.95539999 </v>
   <v>       0.22244981       0.11068511       0.04460000 </v>
   <v>       0.11068511       0.55578315       0.95539999 </v>
   <v>       0.22244981       0.44401845       0.04460000 </v>
   <v>       0.11068511       0.88911647       0.95539999 </v>
   <v>       0.22244981       0.77735180       0.04460000 </v>
   <v>       0.44401845       0.22244981       0.95539999 </v>
   <v>       0.55578315       0.11068511       0.04460000 </v>
   <v>       0.44401845       0.55578315       0.95539999 </v>
   <v>       0.55578315       0.44401845       0.04460000 </v>
   <v>       0.44401845       0.88911647       0.95539999 </v>
   <v>       0.55578315       0.77735180       0.04460000 </v>
   <v>       0.77735180       0.22244981       0.95539999 </v>
   <v>       0.88911647       0.11068511       0.04460000 </v>
   <v>       0.77735180       0.55578315       0.95539999 </v>
   <v>       0.88911647       0.44401845       0.04460000 </v>
   <v>       0.77735180       0.88911647       0.95539999 </v>
   <v>       0.88911647       0.77735180       0.04460000 </v>
  </varray>
 </structure>
 <calculation>
  <scstep>
   <time name="dav">   22.27   22.33</time>
   <time name="total">   22.32   22.38</time>
   <energy>
    <i name="alphaZ">     81.65567618 </i>
    <i name="ewald">  41890.23011080 </i>
    <i name="hartreedc"> -47722.87379857 </i>
    <i name="XCdc">   -242.92723518 </i>
    <i name="pawpsdc">   3467.42045192 </i>
    <i name="pawaedc">  -2871.19716117 </i>
    <i name="eentropy">     -0.53130157 </i>
    <i name="bandstr">   -237.28765427 </i>
    <i name="atom">   6761.44252427 </i>
    <i name="e_fr_energy">   1125.93161241 </i>
    <i name="e_wo_entrp">   1126.46291398 </i>
    <i name="e_0_energy">   1126.19726320 </i>
   </energy>
  </scstep>
  <scstep>
   <time name="dav">   29.04   29.11</time>
   <time name="total">   29.05   29.12</time>
   <energy>
    <i name="e_fr_energy">     -3.88421064 </i>
    <i name="e_wo_entrp">     -3.69567980 </i>
    <i name="e_0_energy">     -3.78994522 </i>
   </energy>
  </scstep>
  <scstep>
   <time name="dav">   28.21   28.28</time>
   <time name="total">   28.21   28.29</time>
   <energy>
    <i name="e_fr_energy">   -199.87211754 </i>
    <i name="e_wo_entrp">   -199.59628810 </i>
    <i name="e_0_energy">   -199.73420282 </i>
   </energy>
  </scstep>
  <scstep>
   <time name="dav">   31.56   31.63</time>
   <time name="total">   31.56   31.64</time>
   <energy>
    <i name="e_fr_energy">   -209.01295795 </i>
    <i name="e_wo_entrp">   -208.70449210 </i>
    <i name="e_0_energy">   -208.85872503 </i>
   </energy>
  </scstep>
  <scstep>
   <time name="dav">   29.61   29.68</time>
   <time name="total">   30.08   30.16</time>
   <energy>
    <i name="e_fr_energy">   -209.31008893 </i>
    <i name="e_wo_entrp">   -209.00434723 </i>
    <i name="e_0_energy">   -209.15721808 </i>
   </energy>
  </scstep>
  <scstep>
   <time name="dav">   31.67   31.75</time>
   <time name="total">   32.18   32.26</time>
   <energy>
    <i name="e_fr_energy">   -236.79924806 </i>
    <i name="e_wo_entrp">   -236.51704434 </i>
    <i name="e_0_energy">   -236.65814620 </i>
   </energy>
  </scstep>
  <scstep>
   <time name="dav">   33.42   33.50</time>
   <time name="total">   33.93   34.02</time>
   <energy>
    <i name="e_fr_energy">   -196.50892395 </i>
    <i name="e_wo_entrp">   -196.19280489 </i>
    <i name="e_0_energy">   -196.35086442 </i>
   </energy>
  </scstep>
  <scstep>
   <time name="dav">   30.73   30.80</time>
   <time name="total">   31.24   31.32</time>
   <energy>
    <i name="e_fr_energy">   -189.48489926 </i>
    <i name="e_wo_entrp">   -189.19539587 </i>
    <i name="e_0_energy">   -189.34014756 </i>
   </energy>
  </scstep>
  <scstep>
   <time name="dav">   31.54   31.62</time>
   <time name="total">   32.07   32.15</time>
   <energy>
    <i name="e_fr_energy">   -188.16957250 </i>
    <i name="e_wo_entrp">   -187.82926776 </i>
    <i name="e_0_energy">   -187.99942013 </i>
   </energy>
  </scstep>
  <scstep>
   <time name="dav">   33.62   33.70</time>
   <time name="total">   34.16   34.25</time>
   <energy>
    <i name="e_fr_energy">   -187.03388771 </i>
    <i name="e_wo_entrp">   -186.68743461 </i>
    <i name="e_0_energy">   -186.86066116 </i>
   </energy>
  </scstep>
  <scstep>
   <time name="dav">   31.20   31.28</time>
   <time name="total">   31.74   31.82</time>
   <energy>
    <i name="e_fr_energy">   -186.94275800 </i>
    <i name="e_wo_entrp">   -186.59166200 </i>
    <i name="e_0_energy">   -186.76721000 </i>
   </energy>
  </scstep>
  <scstep>
   <time name="dav">   31.66   31.73</time>
   <time name="total">   32.19   32.28</time>
   <energy>
    <i name="e_fr_energy">   -187.04571702 </i>
    <i name="e_wo_entrp">   -186.70867837 </i>
    <i name="e_0_energy">   -186.87719770 </i>
   </energy>
  </scstep>
  <scstep>
   <time name="dav">   31.56   31.63</time>
   <time name="total">   32.10   32.18</time>
   <energy>
    <i name="e_fr_energy">   -186.88104826 </i>
    <i name="e_wo_entrp">   -186.54246539 </i>
    <i name="e_0_energy">   -186.71175683 </i>
   </energy>
  </scstep>
  <scstep>
   <time name="dav">   33.07   33.15</time>
   <time name="total">   33.61   33.70</time>
   <energy>
    <i name="e_fr_energy">   -186.84555187 </i>
    <i name="e_wo_entrp">   -186.50028480 </i>
    <i name="e_0_energy">   -186.67291833 </i>
   </energy>
  </scstep>
  <scstep>
   <time name="dav">   30.47   30.55</time>
   <time name="total">   31.01   31.10</time>
   <energy>
    <i name="e_fr_energy">   -186.84004998 </i>
    <i name="e_wo_entrp">   -186.49306447 </i>
    <i name="e_0_energy">   -186.66655723 </i>
   </energy>
  </scstep>
  <scstep>
   <time name="dav">   32.47   32.55</time>
   <time name="total">   33.01   33.10</time>
   <energy>
    <i name="e_fr_energy">   -186.82973143 </i>
    <i name="e_wo_entrp">   -186.48257151 </i>
    <i name="e_0_energy">   -186.65615147 </i>
   </energy>
  </scstep>
  <scstep>
   <time name="dav">   32.02   32.09</time>
   <time name="total">   32.56   32.65</time>
   <energy>
    <i name="e_fr_energy">   -186.82762948 </i>
    <i name="e_wo_entrp">   -186.48238608 </i>
    <i name="e_0_energy">   -186.65500778 </i>
   </energy>
  </scstep>
  <scstep>
   <time name="dav">   30.21   30.28</time>
   <time name="total">   30.75   30.83</time>
   <energy>
    <i name="e_fr_energy">   -186.82728091 </i>
    <i name="e_wo_entrp">   -186.48192941 </i>
    <i name="e_0_energy">   -186.65460516 </i>
   </energy>
  </scstep>
  <scstep>
   <time name="dav">   26.46   26.52</time>
   <time name="total">   27.00   27.07</time>
   <energy>
    <i name="e_fr_energy">   -186.82693033 </i>
    <i name="e_wo_entrp">   -186.48119701 </i>
    <i name="e_0_energy">   -186.65406367 </i>
   </energy>
  </scstep>
  <scstep>
   <time name="dav">   24.83   24.89</time>
   <time name="total">   25.38   25.44</time>
   <energy>
    <i name="e_fr_energy">   -186.82751961 </i>
    <i name="e_wo_entrp">   -186.48184280 </i>
    <i name="e_0_energy">   -186.65468121 </i>
   </energy>
  </scstep>
  <scstep>
   <time name="dav">   24.27   24.33</time>
   <time name="total">   24.81   24.88</time>
   <energy>
    <i name="e_fr_energy">   -186.82817840 </i>
    <i name="e_wo_entrp">   -186.48276743 </i>
    <i name="e_0_energy">   -186.65547291 </i>
   </energy>
  </scstep>
  <scstep>
   <time name="dav">   21.15   21.20</time>
   <time name="total">   21.69   21.75</time>
   <energy>
    <i name="e_fr_energy">   -186.82936212 </i>
    <i name="e_wo_entrp">   -186.48380180 </i>
    <i name="e_0_energy">   -186.65658196 </i>
   </energy>
  </scstep>
  <scstep>
   <time name="dav">   20.96   21.01</time>
   <time name="total">   21.50   21.56</time>
   <energy>
    <i name="e_fr_energy">   -186.83062437 </i>
    <i name="e_wo_entrp">   -186.48517320 </i>
    <i name="e_0_energy">   -186.65789879 </i>
   </energy>
  </scstep>
  <scstep>
   <time name="dav">   19.17   19.21</time>
   <time name="total">   19.71   19.76</time>
   <energy>
    <i name="e_fr_energy">   -186.83122211 </i>
    <i name="e_wo_entrp">   -186.48575959 </i>
    <i name="e_0_energy">   -186.65849085 </i>
   </energy>
  </scstep>
  <scstep>
   <time name="dav">   17.15   17.19</time>
   <time name="total">   17.69   17.74</time>
   <energy>
    <i name="e_fr_energy">   -186.83160783 </i>
    <i name="e_wo_entrp">   -186.48609913 </i>
    <i name="e_0_energy">   -186.65885348 </i>
   </energy>
  </scstep>
  <scstep>
   <time name="dav">   19.58   19.63</time>
   <time name="total">   20.12   20.18</time>
   <energy>
    <i name="e_fr_energy">   -186.83182487 </i>
    <i name="e_wo_entrp">   -186.48633145 </i>
    <i name="e_0_energy">   -186.65907816 </i>
   </energy>
  </scstep>
  <scstep>
   <time name="dav">   19.78   19.83</time>
   <time name="total">   20.33   20.38</time>
   <energy>
    <i name="e_fr_energy">   -186.83193223 </i>
    <i name="e_wo_entrp">   -186.48644202 </i>
    <i name="e_0_energy">   -186.65918713 </i>
   </energy>
  </scstep>
  <scstep>
   <time name="dav">   20.65   20.70</time>
   <time name="total">   20.68   20.74</time>
   <energy>
    <i name="alphaZ">     81.65567618 </i>
    <i name="ewald">  41890.23011080 </i>
    <i name="hartreedc"> -47832.88101071 </i>
    <i name="XCdc">   -231.61131515 </i>
    <i name="pawpsdc">   4192.03469435 </i>
    <i name="pawaedc">  -3610.03767708 </i>
    <i name="eentropy">     -0.34548870 </i>
    <i name="bandstr">  -1437.31949151 </i>
    <i name="atom">   6761.44252427 </i>
    <i name="e_fr_energy">   -186.83197754 </i>
    <i name="e_wo_entrp">   -186.48648884 </i>
    <i name="e_0_energy">   -186.65923319 </i>
   </energy>
  </scstep>
  <structure>
   <crystal>
    <varray name="basis" >
     <v>       8.66999996       5.03999989       0.00000000 </v>
     <v>      -8.66999982       5.04000013       0.00000000 </v>
     <v>       0.00000000       0.00000000      30.00000000 </v>
    </varray>
    <i name="volume">   2621.80797419 </i>
    <varray name="rec_basis" >
     <v>       0.05767013       0.09920635       0.00000000 </v>
     <v>      -0.05767013       0.09920635       0.00000000 </v>
     <v>       0.00000000       0.00000000       0.03333333 </v>
    </varray>
   </crystal>
   <varray name="positions" >
    <v>       0.33333334       0.33333334       0.00000000 </v>
    <v>       0.00000000       0.00000000       0.00000000 </v>
    <v>       0.33333334       0.66666669       0.00000000 </v>
    <v>       0.00000000       0.66666669       0.00000000 </v>
    <v>       0.66666669       0.66666669       0.00000000 </v>
    <v>       1.00000000       0.33333334       0.00000000 </v>
    <v>       0.33333334       0.00000000       0.00000000 </v>
    <v>       0.66666669       0.00000000       0.00000000 </v>
    <v>       0.66666669       0.33333334       0.00000000 </v>
    <v>       0.11068511       0.22244981       0.95539999 </v>
    <v>       0.22244981       0.11068511       0.04460000 </v>
    <v>       0.11068511       0.55578315       0.95539999 </v>
    <v>       0.22244981       0.44401845       0.04460000 </v>
    <v>       0.11068511       0.88911647       0.95539999 </v>
    <v>       0.22244981       0.77735180       0.04460000 </v>
    <v>       0.44401845       0.22244981       0.95539999 </v>
    <v>       0.55578315       0.11068511       0.04460000 </v>
    <v>       0.44401845       0.55578315       0.95539999 </v>
    <v>       0.55578315       0.44401845       0.04460000 </v>
    <v>       0.44401845       0.88911647       0.95539999 </v>
    <v>       0.55578315       0.77735180       0.04460000 </v>
    <v>       0.77735180       0.22244981       0.95539999 </v>
    <v>       0.88911647       0.11068511       0.04460000 </v>
    <v>       0.77735180       0.55578315       0.95539999 </v>
    <v>       0.88911647       0.44401845       0.04460000 </v>
    <v>       0.77735180       0.88911647       0.95539999 </v>
    <v>       0.88911647       0.77735180       0.04460000 </v>
   </varray>
  </structure>
  <varray name="forces" >
   <v>      -0.29935263       0.07339933      -0.03454755 </v>
   <v>      -0.00511663      -0.15146796       0.08119506 </v>
   <v>       0.07423583      -0.26650635      -0.10294114 </v>
   <v>      -0.00378489      -0.28928506       0.12083852 </v>
   <v>       0.23960610       0.12647289       0.02205245 </v>
   <v>      -0.18249546       0.16326520      -0.07427254 </v>
   <v>      -0.07628792      -0.34982678       0.04273699 </v>
   <v>       0.34704323       0.12616067      -0.08622105 </v>
   <v>      -0.05311294       0.63341842       0.02080934 </v>
   <v>       0.88808586       0.00211075      -1.43203307 </v>
   <v>      -0.74120005      -0.02411450       1.48542757 </v>
   <v>       0.55032512       0.71402592      -2.15414766 </v>
   <v>       0.32546200       0.66586129       1.43937380 </v>
   <v>      -0.66105709       0.15816213      -2.09556215 </v>
   <v>       0.64588264       0.14633872       2.10239851 </v>
   <v>      -0.57832797       0.00565603      -2.08533696 </v>
   <v>      -0.16266605       0.01662013       2.86476387 </v>
   <v>      -0.34519879      -0.67587432      -1.42770493 </v>
   <v>      -0.36055005      -0.70772453       2.15293307 </v>
   <v>       0.47802080      -0.58318469      -2.19688859 </v>
   <v>      -0.61555120      -0.55691290       2.11615317 </v>
   <v>       0.04443398      -0.17004718      -2.91026406 </v>
   <v>       0.69043985      -0.14199788       2.13660352 </v>
   <v>       0.19597270      -0.17536436      -2.93009653 </v>
   <v>      -0.21675614      -0.14559092       2.94916250 </v>
   <v>       0.34575017       0.69186616      -2.17507260 </v>
   <v>      -0.52380047       0.71453978       2.17064046 </v>
  </varray>
  <varray name="stress" >
   <v>       7.30344220       0.04625691      -1.53144421 </v>
   <v>       0.04625681       4.43663189      -0.00022569 </v>
   <v>      -1.53144419      -0.00022580      30.32784003 </v>
  </varray>
  <energy>
   <i name="e_fr_energy">   -186.83197754 </i>
   <i name="e_wo_entrp">   -186.65923319 </i>
   <i name="e_0_energy">     -0.34548870 </i>
  </energy>
  <time name="totalsc">  822.94  825.13</time>
 </calculation>
 <calculation>
  <scstep>
   <time name="dav">   22.26   22.31</time>
   <time name="total">   22.81   22.86</time>
   <energy>
    <i name="alphaZ">     78.92461488 </i>
    <i name="ewald">  39380.89240296 </i>
    <i name="hartreedc"> -45338.34735586 </i>
    <i name="XCdc">   -239.07001935 </i>
    <i name="pawpsdc">   4192.03603315 </i>
    <i name="pawaedc">  -3610.03900782 </i>
    <i name="eentropy">     -0.28725131 </i>
    <i name="bandstr">  -1413.01630571 </i>
    <i name="atom">   6761.44252427 </i>
    <i name="e_fr_energy">   -187.46436479 </i>
    <i name="e_wo_entrp">   -187.17711347 </i>
    <i name="e_0_energy">   -187.32073913 </i>
   </energy>
  </scstep>
  <scstep>
   <time name="dav">   30.90   30.97</time>
   <time name="total">   31.44   31.52</time>
   <energy>
    <i name="e_fr_energy">   -189.36148635 </i>
    <i name="e_wo_entrp">   -189.04079356 </i>
    <i name="e_0_energy">   -189.20113996 </i>
   </energy>
  </scstep>
  <scstep>
   <time name="dav">   31.39   31.46</time>
   <time name="total">   31.94   32.02</time>
   <energy>
    <i name="e_fr_energy">   -189.34356216 </i>
    <i name="e_wo_entrp">   -189.06294802 </i>
    <i name="e_0_energy">   -189.20325509 </i>
   </energy>
  </scstep>
  <scstep>
   <time name="dav">   31.78   31.86</time>
   <time name="total">   32.33   32.42</time>
   <energy>
    <i name="e_fr_energy">   -188.73953145 </i>
    <i name="e_wo_entrp">   -188.45367536 </i>
    <i name="e_0_energy">   -188.59660340 </i>
   </energy>
  </scstep>
  <scstep>
   <time name="dav">   28.44   28.51</time>
   <time name="total">   28.98   29.06</time>
   <energy>
    <i name="e_fr_energy">   -188.74500678 </i>
    <i name="e_wo_entrp">   -188.45613397 </i>
    <i name="e_0_energy">   -188.60057037 </i>
   </energy>
  </scstep>
  <scstep>
   <time name="dav">   28.76   28.83</time>
   <time name="total">   29.31   29.39</time>
   <energy>
    <i name="e_fr_energy">   -188.67149902 </i>
    <i name="e_wo_entrp">   -188.38485713 </i>
    <i name="e_0_energy">   -188.52817807 </i>
   </energy>
  </scstep>
  <scstep>
   <time name="dav">   30.81   30.88</time>
   <time name="total">   31.35   31.44</time>
   <energy>
    <i name="e_fr_energy">   -188.68906862 </i>
    <i name="e_wo_entrp">   -188.40211277 </i>
    <i name="e_0_energy">   -188.54559070 </i>
   </energy>
  </scstep>
  <scstep>
   <time name="dav">   32.69   32.77</time>
   <time name="total">   33.24   33.33</time>
   <energy>
    <i name="e_fr_energy">   -188.64741664 </i>
    <i name="e_wo_entrp">   -188.36222119 </i>
    <i name="e_0_energy">   -188.50481892 </i>
   </energy>
  </scstep>
  <scstep>
   <time name="dav">   28.61   28.68</time>
   <time name="total">   29.16   29.24</time>
   <energy>
    <i name="e_fr_energy">   -188.64437554 </i>
    <i name="e_wo_entrp">   -188.35913740 </i>
    <i name="e_0_energy">   -188.50175647 </i>
   </energy>
  </scstep>
  <scstep>
   <time name="dav">   33.78   33.86</time>
   <time name="total">   34.33   34.42</time>
   <energy>
    <i name="e_fr_energy">   -188.64413950 </i>
    <i name="e_wo_entrp">   -188.35849534 </i>
    <i name="e_0_energy">   -188.50131742 </i>
   </energy>
  </scstep>
  <scstep>
   <time name="dav">   32.49   32.56</time>
   <time name="total">   33.03   33.12</time>
   <energy>
    <i name="e_fr_energy">   -188.64315839 </i>
    <i name="e_wo_entrp">   -188.35867588 </i>
    <i name="e_0_energy">   -188.50091713 </i>
   </energy>
  </scstep>
  <scstep>
   <time name="dav">   30.94   31.02</time>
   <time name="total">   31.49   31.57</time>
   <energy>
    <i name="e_fr_energy">   -188.64320315 </i>
    <i name="e_wo_entrp">   -188.35853406 </i>
    <i name="e_0_energy">   -188.50086860 </i>
   </energy>
  </scstep>
  <scstep>
   <time name="dav">   21.20   21.25</time>
   <time name="total">   21.24   21.30</time>
   <energy>
    <i name="alphaZ">     78.92461488 </i>
    <i name="ewald">  39380.89240296 </i>
    <i name="hartreedc"> -45349.19957021 </i>
    <i name="XCdc">   -237.97950380 </i>
    <i name="pawpsdc">   3950.38357166 </i>
    <i name="pawaedc">  -3364.88796462 </i>
    <i name="eentropy">     -0.28470354 </i>
    <i name="bandstr">  -1407.93448433 </i>
    <i name="atom">   6761.44252427 </i>
    <i name="e_fr_energy">   -188.64311273 </i>
    <i name="e_wo_entrp">   -188.35840919 </i>
    <i name="e_0_energy">   -188.50076096 </i>
   </energy>
  </scstep>
  <structure>
   <crystal>
    <varray name="basis" >
     <v>       8.85582339       5.10655201       0.00000000 </v>
     <v>      -8.85445994       5.10420703       0.00000000 </v>
     <v>       0.00000000       0.00000000      30.00000000 </v>
    </varray>
    <i name="volume">   2712.53148680 </i>
    <varray name="rec_basis" >
     <v>       0.05645140       0.09792837       0.00000000 </v>
     <v>      -0.05647734       0.09794345       0.00000000 </v>
     <v>       0.00000000       0.00000000       0.03333333 </v>
    </varray>
   </crystal>
   <varray name="positions" >
    <v>       0.33285178       0.33451748      -0.00005556 </v>
    <v>      -0.00073916      -0.00071069       0.00013057 </v>
    <v>       0.33226439       0.66518466      -0.00016554 </v>
    <v>      -0.00139504       0.66529270       0.00019432 </v>
    <v>       0.66793861       0.66660536       0.00003546 </v>
    <v>       1.00027365       0.33462246      -0.00011944 </v>
    <v>       0.33144683      -0.00146202       0.00006872 </v>
    <v>       0.66823602      -0.00036173      -0.00013865 </v>
    <v>       0.66955044       0.33651264       0.00003346 </v>
    <v>       0.11316601       0.21998911       0.95309715 </v>
    <v>       0.22027226       0.11263184       0.04698870 </v>
    <v>       0.11563351       0.55766937       0.95193593 </v>
    <v>       0.22654209       0.44629976       0.04691464 </v>
    <v>       0.10960290       0.89171259       0.95203014 </v>
    <v>       0.22494713       0.77625522       0.04798084 </v>
    <v>       0.44243652       0.22408588       0.95204658 </v>
    <v>       0.55541013       0.11121722       0.04920679 </v>
    <v>       0.43982334       0.55350883       0.95310411 </v>
    <v>       0.55139289       0.44163441       0.04806211 </v>
    <v>       0.44255727       0.88499543       0.95186720 </v>
    <v>       0.55140522       0.77639899       0.04800296 </v>
    <v>       0.77666158       0.22151234       0.95072003 </v>
    <v>       0.89035778       0.10808460       0.04803585 </v>
    <v>       0.77705773       0.55439864       0.95068814 </v>
    <v>       0.88781662       0.44392471       0.04934251 </v>
    <v>       0.78162498       0.89146579       0.95190228 </v>
    <v>       0.89107894       0.78222886       0.04809058 </v>
   </varray>
  </structure>
  <varray name="forces" >
   <v>      -0.19067670       0.05818971      -0.09862638 </v>
   <v>      -0.00557370      -0.16132533       0.02628647 </v>
   <v>       0.00213395      -0.16193253      -0.04785496 </v>
   <v>      -0.00895038      -0.48689224       0.03107957 </v>
   <v>       0.34479101       0.15772365       0.08498884 </v>
   <v>      -0.44754089      -0.04385857      -0.09006411 </v>
   <v>       0.04709760      -0.25516910       0.00040297 </v>
   <v>       0.16962663       0.12097204       0.07030292 </v>
   <v>       0.05479784       0.71502999       0.00976397 </v>
   <v>       0.03326516       0.00834914       0.16441380 </v>
   <v>       0.09256493      -0.01561922      -0.12361222 </v>
   <v>       0.02458072       0.07823328      -0.08463907 </v>
   <v>       0.00661358       0.03869847      -0.00637070 </v>
   <v>       0.02214104       0.10629006       0.04340132 </v>
   <v>      -0.01706951       0.09951092      -0.00077358 </v>
   <v>       0.10177058      -0.00636006       0.23792774 </v>
   <v>       0.01226294       0.01164410      -0.25697559 </v>
   <v>      -0.00607268      -0.04407700       0.05118655 </v>
   <v>       0.10274140      -0.05923725      -0.03546815 </v>
   <v>      -0.04195436       0.04345908       0.10020173 </v>
   <v>      -0.08154500       0.05059288      -0.14406210 </v>
   <v>      -0.09174143      -0.12245231      -0.03211248 </v>
   <v>      -0.00635410      -0.09249443      -0.00976654 </v>
   <v>       0.06050701      -0.09356646      -0.23653909 </v>
   <v>      -0.05648940      -0.09167361       0.28000690 </v>
   <v>      -0.09403602       0.06853895      -0.05744440 </v>
   <v>      -0.02689022       0.07742584       0.12434657 </v>
  </varray>
  <varray name="stress" >
   <v>     -19.88673930      -0.00896154       0.01252348 </v>
   <v>      -0.00896155     -19.47184659      -0.01994891 </v>
   <v>       0.01252355      -0.01994880      -1.74904059 </v>
  </varray>
  <energy>
   <i name="e_fr_energy">   -188.64311273 </i>
   <i name="e_wo_entrp">   -188.50076096 </i>
   <i name="e_0_energy">     -0.28470354 </i>
  </energy>
  <time name="totalsc">  432.90  434.04</time>
 </calculation>
 <calculation>
  <scstep>
   <time name="dav">   24.48   24.54</time>
   <time name="total">   25.02   25.08</time>
   <energy>
    <i name="alphaZ">     82.35043809 </i>
    <i name="ewald">  41305.09921192 </i>
    <i name="hartreedc"> -47303.97417544 </i>
    <i name="XCdc">   -233.85502704 </i>
    <i name="pawpsdc">   3949.82668936 </i>
    <i name="pawaedc">  -3364.32626369 </i>
    <i name="eentropy">     -0.23748887 </i>
    <i name="bandstr">  -1386.88885914 </i>
    <i name="atom">   6761.44252427 </i>
    <i name="e_fr_energy">   -190.56295053 </i>
    <i name="e_wo_entrp">   -190.32546166 </i>
    <i name="e_0_energy">   -190.44420609 </i>
   </energy>
  </scstep>
  <scstep>
   <time name="dav">   29.16   29.23</time>
   <time name="total">   29.69   29.77</time>
   <energy>
    <i name="e_fr_energy">   -190.55040299 </i>
    <i name="e_wo_entrp">   -190.30770811 </i>
    <i name="e_0_energy">   -190.42905555 </i>
   </energy>
  </scstep>
  <scstep>
   <time name="dav">   31.07   31.14</time>
   <time name="total">   31.60   31.68</time>
   <energy>
    <i name="e_fr_energy">   -190.03730168 </i>
    <i name="e_wo_entrp">   -189.78873251 </i>
    <i name="e_0_energy">   -189.91301710 </i>
   </energy>
  </scstep>
  <scstep>
   <time name="dav">   31.86   31.94</time>
   <time name="total">   32.40   32.49</time>
   <energy>
    <i name="e_fr_energy">   -189.83187277 </i>
    <i name="e_wo_entrp">   -189.59193893 </i>
    <i name="e_0_energy">   -189.71190585 </i>
   </energy>
  </scstep>
  <scstep>
   <time name="dav">   29.48   29.55</time>
   <time name="total">   30.02   30.10</time>
   <energy>
    <i name="e_fr_energy">   -189.74432211 </i>
    <i name="e_wo_entrp">   -189.50248597 </i>
    <i name="e_0_energy">   -189.62340404 </i>
   </energy>
  </scstep>
  <scstep>
   <time name="dav">   27.47   27.54</time>
   <time name="total">   28.00   28.08</time>
   <energy>
    <i name="e_fr_energy">   -189.72932741 </i>
    <i name="e_wo_entrp">   -189.48829938 </i>
    <i name="e_0_energy">   -189.60881339 </i>
   </energy>
  </scstep>
  <scstep>
   <time name="dav">   30.77   30.85</time>
   <time name="total">   31.31   31.39</time>
   <energy>
    <i name="e_fr_energy">   -189.73058719 </i>
    <i name="e_wo_entrp">   -189.48921149 </i>
    <i name="e_0_energy">   -189.60989934 </i>
   </energy>
  </scstep>
  <scstep>
   <time name="dav">   29.45   29.52</time>
   <time name="total">   29.99   30.07</time>
   <energy>
    <i name="e_fr_energy">   -189.72986652 </i>
    <i name="e_wo_entrp">   -189.48907149 </i>
    <i name="e_0_energy">   -189.60946900 </i>
   </energy>
  </scstep>
  <scstep>
   <time name="dav">   26.36   26.43</time>
   <time name="total">   26.90   26.97</time>
   <energy>
    <i name="e_fr_energy">   -189.72984157 </i>
    <i name="e_wo_entrp">   -189.48866031 </i>
    <i name="e_0_energy">   -189.60925094 </i>
   </energy>
  </scstep>
  <scstep>
   <time name="dav">   25.38   25.44</time>
   <time name="total">   25.42   25.49</time>
   <energy>
    <i name="alphaZ">     82.35043809 </i>
    <i name="ewald">  41305.09921192 </i>
    <i name="hartreedc"> -47277.04993366 </i>
    <i name="XCdc">   -235.24360278 </i>
    <i name="pawpsdc">   4037.20164717 </i>
    <i name="pawaedc">  -3452.89144106 </i>
    <i name="eentropy">     -0.24107509 </i>
    <i name="bandstr">  -1410.39755856 </i>
    <i name="atom">   6761.44252427 </i>
    <i name="e_fr_energy">   -189.72978968 </i>
    <i name="e_wo_entrp">   -189.48871460 </i>
    <i name="e_0_energy">   -189.60925214 </i>
   </energy>
  </scstep>
  <structure>
   <crystal>
    <varray name="basis" >
     <v>       8.66765214       5.00025299       0.00000000 </v>
     <v>      -8.66641540       4.99812632       0.00000000 </v>
     <v>       0.00000000       0.00000000      30.00000000 </v>
    </varray>
    <i name="volume">   2599.68869493 </i>
    <varray name="rec_basis" >
     <v>       0.05767759       0.10000908       0.00000000 </v>
     <v>      -0.05770214       0.10002335       0.00000000 </v>
     <v>       0.00000000       0.00000000       0.03333333 </v>
    </varray>
   </crystal>
   <varray name="positions" >
    <v>       0.33276549       0.33479802      -0.00011156 </v>
    <v>      -0.00101365      -0.00097449       0.00014550 </v>
    <v>       0.33199630       0.66491242      -0.00019271 </v>
    <v>      -0.00221590       0.66448894       0.00021197 </v>
    <v>       0.66853330       0.66653680       0.00008372 </v>
    <v>       0.99977010       0.33497986      -0.00017058 </v>
    <v>       0.33106645      -0.00193308       0.00006895 </v>
    <v>       0.66860095      -0.00032309      -0.00009873 </v>
    <v>       0.67079598       0.33765294       0.00003901 </v>
    <v>       0.11321193       0.21997104       0.95319051 </v>
    <v>       0.22033522       0.11251672       0.04691851 </v>
    <v>       0.11578766       0.55777625       0.95188787 </v>
    <v>       0.22661301       0.44635797       0.04691102 </v>
    <v>       0.10980151       0.89186863       0.95205479 </v>
    <v>       0.22509672       0.77643768       0.04798040 </v>
    <v>       0.44252378       0.22397735       0.95218169 </v>
    <v>       0.55544135       0.11122485       0.04906087 </v>
    <v>       0.43974397       0.55344113       0.95313318 </v>
    <v>       0.55139287       0.44143672       0.04804197 </v>
    <v>       0.44258943       0.88510830       0.95192410 </v>
    <v>       0.55141120       0.77656185       0.04792116 </v>
    <v>       0.77636907       0.22139630       0.95070179 </v>
    <v>       0.89019737       0.10793638       0.04803030 </v>
    <v>       0.77695983       0.55418431       0.95055382 </v>
    <v>       0.88760936       0.44382610       0.04950151 </v>
    <v>       0.78164889       0.89167062       0.95186966 </v>
    <v>       0.89118225       0.78238392       0.04816119 </v>
   </varray>
  </structure>
  <varray name="forces" >
   <v>      -0.14521892       0.05258093      -0.09180249 </v>
   <v>      -0.01064234      -0.18589632       0.00530842 </v>
   <v>      -0.04221619      -0.11005040      -0.02241792 </v>
   <v>      -0.00664217      -0.53911217       0.00328147 </v>
   <v>       0.37143223       0.17761962       0.07511798 </v>
   <v>      -0.52533276      -0.11428256      -0.06717483 </v>
   <v>       0.08781276      -0.22960954      -0.01370301 </v>
   <v>       0.11638170       0.12337312       0.08665415 </v>
   <v>       0.10244383       0.72389527       0.00327057 </v>
   <v>       0.10049301       0.00047766      -0.27077553 </v>
   <v>      -0.07713273      -0.01034985       0.34262628 </v>
   <v>       0.04391072       0.14243375      -0.58153113 </v>
   <v>       0.03522770       0.08950323       0.43687802 </v>
   <v>      -0.08699317       0.01444463      -0.44972220 </v>
   <v>       0.09854781       0.00655970       0.50133011 </v>
   <v>      -0.03109058       0.01033897      -0.23748855 </v>
   <v>       0.00207609       0.02521609       0.27236268 </v>
   <v>      -0.03158187      -0.08585236      -0.39348088 </v>
   <v>      -0.01444574      -0.12469382       0.46286505 </v>
   <v>       0.04456485      -0.07657056      -0.41118014 </v>
   <v>      -0.06828136      -0.08583438       0.34014805 </v>
   <v>      -0.06091462      -0.06356735      -0.60007116 </v>
   <v>       0.10476421       0.00055293       0.48926982 </v>
   <v>       0.01456242      -0.00797004      -0.81428725 </v>
   <v>      -0.00727085      -0.01130386       0.87247230 </v>
   <v>       0.04027304       0.12875161      -0.56584234 </v>
   <v>      -0.05472709       0.14934571       0.62789255 </v>
  </varray>
  <varray name="stress" >
   <v>     -10.14463182      -0.00623165      -0.00639816 </v>
   <v>      -0.00623162      -9.83025926      -0.02427453 </v>
   <v>      -0.00639803      -0.02427439       6.59225516 </v>
  </varray>
  <energy>
   <i name="e_fr_energy">   -189.72978968 </i>
   <i name="e_wo_entrp">   -189.60925214 </i>
   <i name="e_0_energy">     -0.24107509 </i>
  </energy>
  <time name="totalsc">  332.65  333.52</time>
 </calculation>
 <calculation>
  <scstep>
   <time name="dav">   22.23   22.29</time>
   <time name="total">   22.76   22.81</time>
   <energy>
    <i name="alphaZ">     85.83243510 </i>
    <i name="ewald">  42837.80279459 </i>
    <i name="hartreedc"> -48854.29240333 </i>
    <i name="XCdc">   -232.95656586 </i>
    <i name="pawpsdc">   4038.10323818 </i>
    <i name="pawaedc">  -3453.80024347 </i>
    <i name="eentropy">     -0.20222666 </i>
    <i name="bandstr">  -1373.22130162 </i>
    <i name="atom">   6761.44252427 </i>
    <i name="e_fr_energy">   -191.29174880 </i>
    <i name="e_wo_entrp">   -191.08952213 </i>
    <i name="e_0_energy">   -191.19063546 </i>
   </energy>
  </scstep>
  <scstep>
   <time name="dav">   32.78   32.86</time>
   <time name="total">   33.30   33.39</time>
   <energy>
    <i name="e_fr_energy">   -191.19072239 </i>
    <i name="e_wo_entrp">   -190.98034437 </i>
    <i name="e_0_energy">   -191.08553338 </i>
   </energy>
  </scstep>
  <scstep>
   <time name="dav">   30.64   30.71</time>
   <time name="total">   31.15   31.24</time>
   <energy>
    <i name="e_fr_energy">   -191.19712081 </i>
    <i name="e_wo_entrp">   -190.97973678 </i>
    <i name="e_0_energy">   -191.08842879 </i>
   </energy>
  </scstep>
  <scstep>
   <time name="dav">   32.32   32.39</time>
   <time name="total">   32.84   32.93</time>
   <energy>
    <i name="e_fr_energy">   -190.86112050 </i>
    <i name="e_wo_entrp">   -190.64968742 </i>
    <i name="e_0_energy">   -190.75540396 </i>
   </energy>
  </scstep>
  <scstep>
   <time name="dav">   30.11   30.18</time>
   <time name="total">   30.63   30.71</time>
   <energy>
    <i name="e_fr_energy">   -190.84697580 </i>
    <i name="e_wo_entrp">   -190.64181645 </i>
    <i name="e_0_energy">   -190.74439613 </i>
   </energy>
  </scstep>
  <scstep>
   <time name="dav">   30.91   30.99</time>
   <time name="total">   31.43   31.52</time>
   <energy>
    <i name="e_fr_energy">   -190.71200123 </i>
    <i name="e_wo_entrp">   -190.50162376 </i>
    <i name="e_0_energy">   -190.60681250 </i>
   </energy>
  </scstep>
  <scstep>
   <time name="dav">   31.07   31.14</time>
   <time name="total">   31.59   31.67</time>
   <energy>
    <i name="e_fr_energy">   -190.70323081 </i>
    <i name="e_wo_entrp">   -190.49443288 </i>
    <i name="e_0_energy">   -190.59883184 </i>
   </energy>
  </scstep>
  <scstep>
   <time name="dav">   29.02   29.09</time>
   <time name="total">   29.54   29.62</time>
   <energy>
    <i name="e_fr_energy">   -190.70260722 </i>
    <i name="e_wo_entrp">   -190.49393853 </i>
    <i name="e_0_energy">   -190.59827287 </i>
   </energy>
  </scstep>
  <scstep>
   <time name="dav">   29.17   29.24</time>
   <time name="total">   29.70   29.77</time>
   <energy>
    <i name="e_fr_energy">   -190.69994666 </i>
    <i name="e_wo_entrp">   -190.49102703 </i>
    <i name="e_0_energy">   -190.59548684 </i>
   </energy>
  </scstep>
  <scstep>
   <time name="dav">   26.97   27.04</time>
   <time name="total">   27.49   27.57</time>
   <energy>
    <i name="e_fr_energy">   -190.70020601 </i>
    <i name="e_wo_entrp">   -190.49125617 </i>
    <i name="e_0_energy">   -190.59573109 </i>
   </energy>
  </scstep>
  <scstep>
   <time name="dav">   27.21   27.28</time>
   <time name="total">   27.74   27.81</time>
   <energy>
    <i name="e_fr_energy">   -190.70008384 </i>
    <i name="e_wo_entrp">   -190.49126248 </i>
    <i name="e_0_energy">   -190.59567316 </i>
   </energy>
  </scstep>
  <scstep>
   <time name="dav">   22.01   22.06</time>
   <time name="total">   22.04   22.10</time>
   <energy>
    <i name="alphaZ">     85.83243510 </i>
    <i name="ewald">  42837.80279459 </i>
    <i name="hartreedc"> -48826.01074374 </i>
    <i name="XCdc">   -234.28678086 </i>
    <i name="pawpsdc">   4063.73827410 </i>
    <i name="pawaedc">  -3479.62022187 </i>
    <i name="eentropy">     -0.20886145 </i>
    <i name="bandstr">  -1399.38948803 </i>
    <i name="atom">   6761.44252427 </i>
    <i name="e_fr_energy">   -190.70006790 </i>
    <i name="e_wo_entrp">   -190.49120644 </i>
    <i name="e_0_energy">   -190.59563717 </i>
   </energy>
  </scstep>
  <structure>
   <crystal>
    <varray name="basis" >
     <v>       8.48575449       4.90003474       0.00000000 </v>
     <v>      -8.48472245       4.89826054       0.00000000 </v>
     <v>       0.00000000       0.00000000      30.00000000 </v>
    </varray>
    <i name="volume">   2494.22613591 </i>
    <varray name="rec_basis" >
     <v>       0.05891519       0.10205236       0.00000000 </v>
     <v>      -0.05893653       0.10206478       0.00000000 </v>
     <v>       0.00000000       0.00000000       0.03333333 </v>
    </varray>
   </crystal>
   <varray name="positions" >
    <v>       0.33262138       0.33557340      -0.00029589 </v>
    <v>      -0.00228550      -0.00215501       0.00013870 </v>
    <v>       0.33121964       0.66456835      -0.00021757 </v>
    <v>      -0.00574497       0.66100078       0.00019519 </v>
    <v>       0.67107675       0.66631813       0.00023092 </v>
    <v>       0.99686792       0.33609959      -0.00029029 </v>
    <v>       0.33006718      -0.00368445       0.00002861 </v>
    <v>       0.66972425       0.00011175       0.00009459 </v>
    <v>       0.67579299       0.34177296       0.00004027 </v>
    <v>       0.11365510       0.21949444       0.95226072 </v>
    <v>       0.21976099       0.11298771       0.04802343 </v>
    <v>       0.11702663       0.55864232       0.95026219 </v>
    <v>       0.22746887       0.44687699       0.04819164 </v>
    <v>       0.10919205       0.89220170       0.95070528 </v>
    <v>       0.22542852       0.77572472       0.04944440 </v>
    <v>       0.44232699       0.22438707       0.95128672 </v>
    <v>       0.55562605       0.11142383       0.05007378 </v>
    <v>       0.43895112       0.55294984       0.95194123 </v>
    <v>       0.55022792       0.44071275       0.04942311 </v>
    <v>       0.44209592       0.88404390       0.95063893 </v>
    <v>       0.55030570       0.77591185       0.04903618 </v>
    <v>       0.77594151       0.22132061       0.94897746 </v>
    <v>       0.89097089       0.10763320       0.04946672 </v>
    <v>       0.77710978       0.55436098       0.94837755 </v>
    <v>       0.88778315       0.44391108       0.05181076 </v>
    <v>       0.78294415       0.89228896       0.95026672 </v>
    <v>       0.89205948       0.78373700       0.04988852 </v>
   </varray>
  </structure>
  <varray name="forces" >
   <v>      -0.11177528       0.02445294      -0.04958756 </v>
   <v>      -0.01602923      -0.17317684      -0.03587948 </v>
   <v>      -0.08974452      -0.03367368       0.03487046 </v>
   <v>       0.01633752      -0.55090758      -0.02228529 </v>
   <v>       0.37767310       0.16853798       0.04006851 </v>
   <v>      -0.56755386      -0.15111354      -0.01315754 </v>
   <v>       0.08507363      -0.28720360      -0.01697472 </v>
   <v>       0.10573064       0.12576821       0.06568592 </v>
   <v>       0.12960137       0.72940415      -0.00036061 </v>
   <v>      -0.04945975      -0.01505412      -0.18333137 </v>
   <v>      -0.05119195      -0.01085118       0.25593364 </v>
   <v>      -0.01976929       0.01196344      -0.42292228 </v>
   <v>      -0.03668342      -0.01312073       0.28050943 </v>
   <v>      -0.00328426      -0.06923556      -0.27104943 </v>
   <v>       0.02547898      -0.08429429       0.32469905 </v>
   <v>       0.03425329       0.07263568      -0.06879907 </v>
   <v>      -0.04407520       0.07798400       0.09700212 </v>
   <v>       0.01510943       0.03072470      -0.29447384 </v>
   <v>       0.01678516      -0.00733230       0.29548411 </v>
   <v>       0.08172074      -0.04225543      -0.29463211 </v>
   <v>       0.04327408      -0.04339302       0.18284895 </v>
   <v>      -0.04819704      -0.01534787      -0.44654074 </v>
   <v>       0.03122329       0.07284559       0.32568145 </v>
   <v>      -0.00525329       0.03746400      -0.62429096 </v>
   <v>      -0.00195867       0.04680599       0.71570604 </v>
   <v>       0.05207870       0.04216689      -0.36199982 </v>
   <v>       0.03063584       0.05620617       0.48779514 </v>
  </varray>
  <varray name="stress" >
   <v>      -5.75008824       0.06129290      -0.03341556 </v>
   <v>       0.06129269      -5.65551836       0.04449742 </v>
   <v>      -0.03341551       0.04449747       4.48934818 </v>
  </varray>
  <energy>
   <i name="e_fr_energy">   -190.70006790 </i>
   <i name="e_wo_entrp">   -190.59563717 </i>
   <i name="e_0_energy">     -0.20886145 </i>
  </energy>
  <time name="totalsc">  392.59  393.62</time>
 </calculation>
 <calculation>
  <scstep>
   <time name="dav">   22.22   22.28</time>
   <time name="total">   22.74   22.79</time>
   <energy>
    <i name="alphaZ">     90.13558315 </i>
    <i name="ewald">  44645.33474101 </i>
    <i name="hartreedc"> -50688.34861265 </i>
    <i name="XCdc">   -231.87119568 </i>
    <i name="pawpsdc">   4063.68927329 </i>
    <i name="pawaedc">  -3479.56607724 </i>
    <i name="eentropy">     -0.19255766 </i>
    <i name="bandstr">  -1352.64467526 </i>
    <i name="atom">   6761.44252427 </i>
    <i name="e_fr_energy">   -192.02099677 </i>
    <i name="e_wo_entrp">   -191.82843911 </i>
    <i name="e_0_energy">   -191.92471794 </i>
   </energy>
  </scstep>
  <scstep>
   <time name="dav">   30.85   30.93</time>
   <time name="total">   31.36   31.44</time>
   <energy>
    <i name="e_fr_energy">   -191.88308160 </i>
    <i name="e_wo_entrp">   -191.67810860 </i>
    <i name="e_0_energy">   -191.78059510 </i>
   </energy>
  </scstep>
  <scstep>
   <time name="dav">   29.19   29.26</time>
   <time name="total">   29.70   29.78</time>
   <energy>
    <i name="e_fr_energy">   -192.20836509 </i>
    <i name="e_wo_entrp">   -192.00097135 </i>
    <i name="e_0_energy">   -192.10466822 </i>
   </energy>
  </scstep>
  <scstep>
   <time name="dav">   30.54   30.61</time>
   <time name="total">   31.05   31.13</time>
   <energy>
    <i name="e_fr_energy">   -191.57737769 </i>
    <i name="e_wo_entrp">   -191.37336642 </i>
    <i name="e_0_energy">   -191.47537206 </i>
   </energy>
  </scstep>
  <scstep>
   <time name="dav">   30.77   30.84</time>
   <time name="total">   31.28   31.36</time>
   <energy>
    <i name="e_fr_energy">   -191.51031810 </i>
    <i name="e_wo_entrp">   -191.31466555 </i>
    <i name="e_0_energy">   -191.41249183 </i>
   </energy>
  </scstep>
  <scstep>
   <time name="dav">   30.91   30.99</time>
   <time name="total">   31.42   31.51</time>
   <energy>
    <i name="e_fr_energy">   -191.33292560 </i>
    <i name="e_wo_entrp">   -191.13080455 </i>
    <i name="e_0_energy">   -191.23186507 </i>
   </energy>
  </scstep>
  <scstep>
   <time name="dav">   30.81   30.88</time>
   <time name="total">   31.32   31.40</time>
   <energy>
    <i name="e_fr_energy">   -191.32622336 </i>
    <i name="e_wo_entrp">   -191.12505080 </i>
    <i name="e_0_energy">   -191.22563708 </i>
   </energy>
  </scstep>
  <scstep>
   <time name="dav">   30.31   30.39</time>
   <time name="total">   30.82   30.90</time>
   <energy>
    <i name="e_fr_energy">   -191.32446721 </i>
    <i name="e_wo_entrp">   -191.12364194 </i>
    <i name="e_0_energy">   -191.22405458 </i>
   </energy>
  </scstep>
  <scstep>
   <time name="dav">   30.07   30.14</time>
   <time name="total">   30.58   30.66</time>
   <energy>
    <i name="e_fr_energy">   -191.32058909 </i>
    <i name="e_wo_entrp">   -191.11938943 </i>
    <i name="e_0_energy">   -191.21998926 </i>
   </energy>
  </scstep>
  <scstep>
   <time name="dav">   28.36   28.43</time>
   <time name="total">   28.86   28.94</time>
   <energy>
    <i name="e_fr_energy">   -191.32102447 </i>
    <i name="e_wo_entrp">   -191.11997587 </i>
    <i name="e_0_energy">   -191.22050017 </i>
   </energy>
  </scstep>
  <scstep>
   <time name="dav">   28.88   28.95</time>
   <time name="total">   29.39   29.47</time>
   <energy>
    <i name="e_fr_energy">   -191.32078668 </i>
    <i name="e_wo_entrp">   -191.11971436 </i>
    <i name="e_0_energy">   -191.22025052 </i>
   </energy>
  </scstep>
  <scstep>
   <time name="dav">   18.93   18.98</time>
   <time name="total">   18.97   19.02</time>
   <energy>
    <i name="alphaZ">     90.13558315 </i>
    <i name="ewald">  44645.33474101 </i>
    <i name="hartreedc"> -50654.99578367 </i>
    <i name="XCdc">   -233.37657591 </i>
    <i name="pawpsdc">   4084.64329477 </i>
    <i name="pawaedc">  -3500.60631124 </i>
    <i name="eentropy">     -0.20111042 </i>
    <i name="bandstr">  -1383.69715050 </i>
    <i name="atom">   6761.44252427 </i>
    <i name="e_fr_energy">   -191.32078853 </i>
    <i name="e_wo_entrp">   -191.11967811 </i>
    <i name="e_0_energy">   -191.22023332 </i>
   </energy>
  </scstep>
  <structure>
   <crystal>
    <varray name="basis" >
     <v>       8.27989928       4.78626305       0.00000000 </v>
     <v>      -8.27529879       4.77830689       0.00000000 </v>
     <v>       0.00000000       0.00000000      30.00000000 </v>
    </varray>
    <i name="volume">   2375.14969617 </i>
    <varray name="rec_basis" >
     <v>       0.06035376       0.10452350       0.00000000 </v>
     <v>      -0.06045425       0.10458161       0.00000000 </v>
     <v>       0.00000000       0.00000000       0.03333333 </v>
    </varray>
   </crystal>
   <varray name="positions" >
    <v>       0.33220460       0.33664996      -0.00050942 </v>
    <v>      -0.00461232      -0.00424918      -0.00000290 </v>
    <v>       0.33016794       0.66484017      -0.00008421 </v>
    <v>      -0.01251853       0.65403186       0.00009285 </v>
    <v>       0.67591670       0.66574587       0.00039971 </v>
    <v>       0.99078135       0.33820826      -0.00034918 </v>
    <v>       0.32739224      -0.00770150      -0.00005107 </v>
    <v>       0.67193523       0.00098433       0.00038359 </v>
    <v>       0.68570231       0.34974679       0.00003444 </v>
    <v>       0.11337900       0.21940853       0.95105923 </v>
    <v>       0.21897774       0.11353749       0.04954426 </v>
    <v>       0.11752599       0.55923552       0.94800740 </v>
    <v>       0.22748055       0.44717507       0.04982512 </v>
    <v>       0.10793734       0.89151354       0.94904906 </v>
    <v>       0.22472213       0.77413684       0.05132220 </v>
    <v>       0.44312065       0.22526031       0.95045952 </v>
    <v>       0.55624768       0.11261371       0.05106952 </v>
    <v>       0.43903441       0.55299313       0.95028119 </v>
    <v>       0.54965183       0.44034593       0.05117583 </v>
    <v>       0.44186299       0.88244163       0.94890393 </v>
    <v>       0.54953488       0.77469900       0.05032065 </v>
    <v>       0.77554064       0.22152332       0.94656195 </v>
    <v>       0.89248299       0.10819686       0.05133852 </v>
    <v>       0.77764396       0.55508321       0.94522435 </v>
    <v>       0.88855193       0.44455535       0.05532513 </v>
    <v>       0.78435403       0.89254237       0.94821958 </v>
    <v>       0.89319619       0.78469609       0.05239863 </v>
   </varray>
  </structure>
  <varray name="forces" >
   <v>      -0.11997950      -0.00257544      -0.02983475 </v>
   <v>       0.00460883      -0.11566582       0.03740591 </v>
   <v>      -0.09973588       0.01632101      -0.00787706 </v>
   <v>       0.03295726      -0.02512502       0.03470523 </v>
   <v>       0.16520111       0.11571268      -0.02226892 </v>
   <v>      -0.21683345      -0.08946100       0.05499749 </v>
   <v>       0.01030661      -0.37799920      -0.00501803 </v>
   <v>       0.11055737       0.14923098      -0.00588828 </v>
   <v>       0.04421548       0.22772745      -0.03847059 </v>
   <v>      -0.24226268      -0.04328200       0.05303843 </v>
   <v>       0.01488952      -0.03310833      -0.02068742 </v>
   <v>      -0.09268230      -0.14246340      -0.06489776 </v>
   <v>      -0.09504558      -0.09380454      -0.00983280 </v>
   <v>       0.08442664      -0.15012882      -0.03919811 </v>
   <v>      -0.04965930      -0.15603028       0.06335034 </v>
   <v>       0.17793581       0.15323824       0.24923808 </v>
   <v>      -0.10957059       0.13648860      -0.21845787 </v>
   <v>       0.02594416       0.12736402       0.02590572 </v>
   <v>       0.13395043       0.11079360      -0.00466411 </v>
   <v>       0.08188207       0.01816551      -0.00166567 </v>
   <v>       0.16731936       0.04759696      -0.06162896 </v>
   <v>      -0.09418666      -0.01767853      -0.13441736 </v>
   <v>      -0.05318879       0.09936300       0.02232343 </v>
   <v>      -0.02131982       0.03575281      -0.27440955 </v>
   <v>      -0.01132826       0.07444602       0.34093974 </v>
   <v>       0.02147053      -0.03101937      -0.05936130 </v>
   <v>       0.13012765      -0.03385911       0.11667415 </v>
  </varray>
  <varray name="stress" >
   <v>      -0.06046600       0.19992929       0.20852213 </v>
   <v>       0.19992933       0.25041985       0.23039195 </v>
   <v>       0.20852212       0.23039211      -0.60927081 </v>
  </varray>
  <energy>
   <i name="e_fr_energy">   -191.32078853 </i>
   <i name="e_wo_entrp">   -191.22023332 </i>
   <i name="e_0_energy">     -0.20111042 </i>
  </energy>
  <time name="totalsc">  389.77  390.79</time>
 </calculation>
 <calculation>
  <scstep>
   <time name="dav">   22.21   22.26</time>
   <time name="total">   22.72   22.78</time>
   <energy>
    <i name="alphaZ">     90.09116875 </i>
    <i name="ewald">  44606.55517596 </i>
    <i name="hartreedc"> -50616.50039281 </i>
    <i name="XCdc">   -233.48302242 </i>
    <i name="pawpsdc">   4084.55895229 </i>
    <i name="pawaedc">  -3500.51806023 </i>
    <i name="eentropy">     -0.20412905 </i>
    <i name="bandstr">  -1383.30386314 </i>
    <i name="atom">   6761.44252427 </i>
    <i name="e_fr_energy">   -191.36164637 </i>
    <i name="e_wo_entrp">   -191.15751732 </i>
    <i name="e_0_energy">   -191.25958184 </i>
   </energy>
  </scstep>
  <scstep>
   <time name="dav">   31.71   31.78</time>
   <time name="total">   32.21   32.30</time>
   <energy>
    <i name="e_fr_energy">   -191.40272321 </i>
    <i name="e_wo_entrp">   -191.19574305 </i>
    <i name="e_0_energy">   -191.29923313 </i>
   </energy>
  </scstep>
  <scstep>
   <time name="dav">   30.53   30.60</time>
   <time name="total">   31.04   31.12</time>
   <energy>
    <i name="e_fr_energy">   -191.37328617 </i>
    <i name="e_wo_entrp">   -191.16949680 </i>
    <i name="e_0_energy">   -191.27139148 </i>
   </energy>
  </scstep>
  <scstep>
   <time name="dav">   28.40   28.46</time>
   <time name="total">   28.90   28.98</time>
   <energy>
    <i name="e_fr_energy">   -191.37319034 </i>
    <i name="e_wo_entrp">   -191.16834876 </i>
    <i name="e_0_energy">   -191.27076955 </i>
   </energy>
  </scstep>
  <scstep>
   <time name="dav">   26.69   26.76</time>
   <time name="total">   27.21   27.28</time>
   <energy>
    <i name="e_fr_energy">   -191.37112034 </i>
    <i name="e_wo_entrp">   -191.16655911 </i>
    <i name="e_0_energy">   -191.26883973 </i>
   </energy>
  </scstep>
  <scstep>
   <time name="dav">   26.76   26.83</time>
   <time name="total">   27.27   27.35</time>
   <energy>
    <i name="e_fr_energy">   -191.37100192 </i>
    <i name="e_wo_entrp">   -191.16634459 </i>
    <i name="e_0_energy">   -191.26867326 </i>
   </energy>
  </scstep>
  <scstep>
   <time name="dav">   27.11   27.17</time>
   <time name="total">   27.62   27.69</time>
   <energy>
    <i name="e_fr_energy">   -191.37136154 </i>
    <i name="e_wo_entrp">   -191.16684200 </i>
    <i name="e_0_energy">   -191.26910177 </i>
   </energy>
  </scstep>
  <scstep>
   <time name="dav">   24.22   24.28</time>
   <time name="total">   24.73   24.79</time>
   <energy>
    <i name="e_fr_energy">   -191.37072100 </i>
    <i name="e_wo_entrp">   -191.16612708 </i>
    <i name="e_0_energy">   -191.26842404 </i>
   </energy>
  </scstep>
  <scstep>
   <time name="dav">   17.60   17.64</time>
   <time name="total">   17.63   17.68</time>
   <energy>
    <i name="alphaZ">     90.09116875 </i>
    <i name="ewald">  44606.55517596 </i>
    <i name="hartreedc"> -50617.79059757 </i>
    <i name="XCdc">   -233.45021180 </i>
    <i name="pawpsdc">   4081.30772319 </i>
    <i name="pawaedc">  -3497.22276948 </i>
    <i name="eentropy">     -0.20463777 </i>
    <i name="bandstr">  -1382.09911038 </i>
    <i name="atom">   6761.44252427 </i>
    <i name="e_fr_energy">   -191.37073484 </i>
    <i name="e_wo_entrp">   -191.16609706 </i>
    <i name="e_0_energy">   -191.26841595 </i>
   </energy>
  </scstep>
  <structure>
   <crystal>
    <varray name="basis" >
     <v>       8.28106656       4.79380453       0.00000000 </v>
     <v>      -8.27139755       4.77706879       0.00000000 </v>
     <v>       0.00000000       0.00000000      30.00000000 </v>
    </varray>
    <i name="volume">   2376.32063049 </i>
    <varray name="rec_basis" >
     <v>       0.06030839       0.10442275       0.00000000 </v>
     <v>      -0.06051967       0.10454481       0.00000000 </v>
     <v>       0.00000000       0.00000000       0.03333333 </v>
    </varray>
   </crystal>
   <varray name="positions" >
    <v>       0.33184194       0.33698746      -0.00055751 </v>
    <v>      -0.00518332      -0.00484730       0.00005724 </v>
    <v>       0.32995935       0.66521372      -0.00009684 </v>
    <v>      -0.01255171       0.65380635       0.00014865 </v>
    <v>       0.67698356       0.66584774       0.00036394 </v>
    <v>       0.98969606       0.33839014      -0.00026071 </v>
    <v>       0.32551420      -0.00964121      -0.00005918 </v>
    <v>       0.67301103       0.00141539       0.00037422 </v>
    <v>       0.68698363       0.35077020      -0.00002746 </v>
    <v>       0.11245479       0.21989691       0.95114404 </v>
    <v>       0.21885373       0.11332717       0.04951163 </v>
    <v>       0.11653747       0.55878707       0.94790204 </v>
    <v>       0.22673047       0.44697903       0.04981000 </v>
    <v>       0.10742529       0.89050907       0.94898527 </v>
    <v>       0.22379000       0.77349342       0.05142494 </v>
    <v>       0.44441240       0.22551501       0.95086013 </v>
    <v>       0.55661733       0.11362290       0.05071851 </v>
    <v>       0.43975254       0.55356035       0.95032217 </v>
    <v>       0.55060074       0.44051418       0.05116908 </v>
    <v>       0.44219304       0.88229370       0.94890050 </v>
    <v>       0.55026209       0.77445050       0.05022208 </v>
    <v>       0.77517693       0.22170902       0.94634467 </v>
    <v>       0.89282999       0.10885386       0.05137523 </v>
    <v>       0.77776245       0.55532622       0.94478154 </v>
    <v>       0.88889486       0.44496447       0.05587512 </v>
    <v>       0.78426069       0.89232323       0.94812320 </v>
    <v>       0.89340492       0.78414587       0.05258738 </v>
   </varray>
  </structure>
  <varray name="forces" >
   <v>      -0.14866094       0.01780805      -0.03989061 </v>
   <v>       0.02526511      -0.11211552       0.03612192 </v>
   <v>      -0.09963145      -0.02482263      -0.02482145 </v>
   <v>       0.01941880      -0.05043894       0.00055792 </v>
   <v>       0.19152200       0.10686971      -0.01644339 </v>
   <v>      -0.23587307      -0.10722726       0.03414384 </v>
   <v>      -0.01899130      -0.44373823      -0.01513072 </v>
   <v>       0.12963921       0.17945007       0.00661230 </v>
   <v>       0.04870951       0.36226375      -0.00233910 </v>
   <v>      -0.15213240      -0.03092715       0.08643678 </v>
   <v>       0.01073736      -0.03546331      -0.04080594 </v>
   <v>      -0.04180604      -0.08657310      -0.02547514 </v>
   <v>      -0.05982935      -0.04839313      -0.02035491 </v>
   <v>       0.03391071      -0.08782880      -0.06662944 </v>
   <v>       0.00167190      -0.09401009       0.10262150 </v>
   <v>       0.13487712       0.07354865       0.25043782 </v>
   <v>      -0.07913101       0.05246181      -0.25082304 </v>
   <v>       0.00967638       0.09124824       0.05620260 </v>
   <v>       0.07864076       0.07163581      -0.03514267 </v>
   <v>       0.05461633       0.01207031       0.03949364 </v>
   <v>       0.10131300       0.04092196      -0.09338160 </v>
   <v>      -0.04889584      -0.01681488      -0.07897804 </v>
   <v>      -0.02130618       0.05823046       0.02388166 </v>
   <v>       0.01113186       0.04661072      -0.14350523 </v>
   <v>      -0.03350670       0.03179637       0.18299290 </v>
   <v>       0.02120142       0.00557402      -0.05090815 </v>
   <v>       0.06743282      -0.01213690       0.08512654 </v>
  </varray>
  <varray name="stress" >
   <v>      -0.08883610       0.02034173       0.04747089 </v>
   <v>       0.02034179      -0.17311451       0.06554850 </v>
   <v>       0.04747082       0.06554834      -1.33180194 </v>
  </varray>
  <energy>
   <i name="e_fr_energy">   -191.37073484 </i>
   <i name="e_wo_entrp">   -191.26841595 </i>
   <i name="e_0_energy">     -0.20463777 </i>
  </energy>
  <time name="totalsc">  281.69  282.43</time>
 </calculation>
 <calculation>
  <scstep>
   <time name="dav">   22.24   22.29</time>
   <time name="total">   22.75   22.81</time>
   <energy>
    <i name="alphaZ">     90.18969415 </i>
    <i name="ewald">  44654.36464610 </i>
    <i name="hartreedc"> -50666.58442818 </i>
    <i name="XCdc">   -233.37252859 </i>
    <i name="pawpsdc">   4081.19302136 </i>
    <i name="pawaedc">  -3497.10651153 </i>
    <i name="eentropy">     -0.20648397 </i>
    <i name="bandstr">  -1381.33482926 </i>
    <i name="atom">   6761.44252427 </i>
    <i name="e_fr_energy">   -191.41489565 </i>
    <i name="e_wo_entrp">   -191.20841167 </i>
    <i name="e_0_energy">   -191.31165366 </i>
   </energy>
  </scstep>
  <scstep>
   <time name="dav">   32.38   32.46</time>
   <time name="total">   32.89   32.98</time>
   <energy>
    <i name="e_fr_energy">   -191.44621155 </i>
    <i name="e_wo_entrp">   -191.23617784 </i>
    <i name="e_0_energy">   -191.34119469 </i>
   </energy>
  </scstep>
  <scstep>
   <time name="dav">   30.92   31.00</time>
   <time name="total">   31.43   31.51</time>
   <energy>
    <i name="e_fr_energy">   -191.42299377 </i>
    <i name="e_wo_entrp">   -191.21676398 </i>
    <i name="e_0_energy">   -191.31987888 </i>
   </energy>
  </scstep>
  <scstep>
   <time name="dav">   28.44   28.51</time>
   <time name="total">   28.95   29.03</time>
   <energy>
    <i name="e_fr_energy">   -191.42154917 </i>
    <i name="e_wo_entrp">   -191.21458982 </i>
    <i name="e_0_energy">   -191.31806950 </i>
   </energy>
  </scstep>
  <scstep>
   <time name="dav">   27.99   28.06</time>
   <time name="total">   28.50   28.58</time>
   <energy>
    <i name="e_fr_energy">   -191.42026637 </i>
    <i name="e_wo_entrp">   -191.21303236 </i>
    <i name="e_0_energy">   -191.31664936 </i>
   </energy>
  </scstep>
  <scstep>
   <time name="dav">   26.39   26.46</time>
   <time name="total">   26.91   26.98</time>
   <energy>
    <i name="e_fr_energy">   -191.41987144 </i>
    <i name="e_wo_entrp">   -191.21259442 </i>
    <i name="e_0_energy">   -191.31623293 </i>
   </energy>
  </scstep>
  <scstep>
   <time name="dav">   28.30   28.37</time>
   <time name="total">   28.81   28.88</time>
   <energy>
    <i name="e_fr_energy">   -191.42012263 </i>
    <i name="e_wo_entrp">   -191.21298178 </i>
    <i name="e_0_energy">   -191.31655221 </i>
   </energy>
  </scstep>
  <scstep>
   <time name="dav">   24.41   24.46</time>
   <time name="total">   24.91   24.98</time>
   <energy>
    <i name="e_fr_energy">   -191.41952624 </i>
    <i name="e_wo_entrp">   -191.21225789 </i>
    <i name="e_0_energy">   -191.31589206 </i>
   </energy>
  </scstep>
  <scstep>
[...]
      <set comment="kpoint 31">
       <r>  -17.4896    1.0000 </r>
       <r>  -17.2932    1.0000 </r>
       <r>  -16.9193    1.0000 </r>
       <r>  -16.6685    1.0000 </r>
       <r>  -16.4954    1.0000 </r>
       <r>  -16.4577    1.0000 </r>
       <r>  -16.3067    1.0000 </r>
       <r>  -16.1652    1.0000 </r>
       <r>  -16.0740    1.0000 </r>
       <r>  -16.0148    1.0000 </r>
       <r>  -15.9198    1.0000 </r>
       <r>  -15.8564    1.0000 </r>
       <r>  -15.7581    1.0000 </r>
       <r>  -15.6965    1.0000 </r>
       <r>  -15.6070    1.0000 </r>
       <r>  -15.5460    1.0000 </r>
       <r>  -15.4203    1.0000 </r>
       <r>  -15.3827    1.0000 </r>
       <r>   -9.7444    1.0000 </r>
       <r>   -9.4659    1.0000 </r>
       <r>   -9.2698    1.0000 </r>
       <r>   -8.8972    1.0000 </r>
       <r>   -8.8231    1.0000 </r>
       <r>   -8.7439    1.0000 </r>
       <r>   -8.5521    1.0000 </r>
       <r>   -8.5160    1.0000 </r>
       <r>   -8.4465    1.0000 </r>
       <r>   -8.3300    1.0000 </r>
       <r>   -8.2985    1.0000 </r>
       <r>   -8.1936    1.0000 </r>
       <r>   -8.1154    1.0000 </r>
       <r>   -8.0756    1.0000 </r>
       <r>   -8.0145    1.0000 </r>
       <r>   -7.9255    1.0000 </r>
       <r>   -7.8302    1.0000 </r>
       <r>   -7.7516    1.0000 </r>
       <r>   -7.5967    1.0000 </r>
       <r>   -7.4078    1.0000 </r>
       <r>   -7.3363    1.0000 </r>
       <r>   -7.2810    1.0000 </r>
       <r>   -7.1306    1.0000 </r>
       <r>   -7.0642    1.0000 </r>
       <r>   -7.0119    1.0000 </r>
       <r>   -6.9504    1.0000 </r>
       <r>   -6.8892    1.0000 </r>
       <r>   -6.8139    1.0000 </r>
       <r>   -6.6522    1.0000 </r>
       <r>   -6.5837    1.0000 </r>
       <r>   -6.5295    1.0000 </r>
       <r>   -6.4766    1.0000 </r>
       <r>   -6.4296    1.0000 </r>
       <r>   -6.3674    1.0000 </r>
       <r>   -6.2494    1.0000 </r>
       <r>   -6.2152    1.0000 </r>
       <r>   -6.1084    1.0000 </r>
       <r>   -6.0591    1.0000 </r>
       <r>   -5.9834    1.0000 </r>
       <r>   -5.9237    1.0000 </r>
       <r>   -5.8690    1.0000 </r>
       <r>   -5.7331    1.0000 </r>
       <r>   -5.6915    1.0000 </r>
       <r>   -5.5837    1.0000 </r>
       <r>   -5.5158    1.0000 </r>
       <r>   -5.3639    1.0000 </r>
       <r>   -5.3386    1.0000 </r>
       <r>   -5.1715    1.0000 </r>
       <r>   -5.1165    1.0000 </r>
       <r>   -4.9203    1.0000 </r>
       <r>   -4.8364    1.0000 </r>
       <r>   -4.7105    1.0000 </r>
       <r>   -4.6412    1.0000 </r>
       <r>   -4.5138    1.0000 </r>
       <r>   -4.4068    1.0000 </r>
       <r>   -4.1756    1.0000 </r>
       <r>   -4.0987    1.0000 </r>
       <r>   -3.8723    1.0000 </r>
       <r>   -3.8118    0.9999 </r>
       <r>   -3.6646    0.9953 </r>
       <r>   -3.5325    0.9520 </r>
       <r>   -3.3283    0.5872 </r>
       <r>   -2.9894    0.0148 </r>
       <r>   -2.8036    0.0002 </r>
       <r>   -2.7385    0.0000 </r>
       <r>   -2.6458    0.0000 </r>
       <r>   -2.4805    0.0000 </r>
       <r>   -2.3869    0.0000 </r>
       <r>   -2.1376    0.0000 </r>
       <r>   -2.0774    0.0000 </r>
       <r>   -1.8581    0.0000 </r>
       <r>   -1.7570    0.0000 </r>
       <r>   -1.6976    0.0000 </r>
       <r>   -1.6361    0.0000 </r>
       <r>   -1.4735    0.0000 </r>
       <r>   -1.3816    0.0000 </r>
       <r>   -1.2155    0.0000 </r>
       <r>   -1.1343    0.0000 </r>
       <r>   -1.0914    0.0000 </r>
       <r>   -1.0606    0.0000 </r>
       <r>   -0.9551    0.0000 </r>
       <r>   -0.9073    0.0000 </r>
       <r>   -0.8644    0.0000 </r>
       <r>   -0.7804    0.0000 </r>
       <r>   -0.7031    0.0000 </r>
       <r>   -0.6449    0.0000 </r>
       <r>   -0.5307    0.0000 </r>
       <r>   -0.4294    0.0000 </r>
       <r>   -0.3721    0.0000 </r>
       <r>   -0.1827    0.0000 </r>
       <r>    0.1001    0.0000 </r>
       <r>    0.2244    0.0000 </r>
       <r>    0.4102    0.0000 </r>
       <r>    0.5530    0.0000 </r>
       <r>    0.7894    0.0000 </r>
       <r>    0.9131    0.0000 </r>
       <r>    1.0546    0.0000 </r>
       <r>    1.3602    0.0000 </r>
       <r>    1.5610    0.0000 </r>
       <r>    2.1365    0.0000 </r>
       <r>    2.2909    0.0000 </r>
       <r>    2.3953    0.0000 </r>
      </set>
      <set comment="kpoint 32">
       <r>  -17.5108    1.0000 </r>
       <r>  -17.2063    1.0000 </r>
       <r>  -17.0353    1.0000 </r>
       <r>  -16.6648    1.0000 </r>
       <r>  -16.4902    1.0000 </r>
       <r>  -16.3364    1.0000 </r>
       <r>  -16.2915    1.0000 </r>
       <r>  -16.2280    1.0000 </r>
       <r>  -16.0661    1.0000 </r>
       <r>  -16.0422    1.0000 </r>
       <r>  -15.9733    1.0000 </r>
       <r>  -15.8435    1.0000 </r>
       <r>  -15.7554    1.0000 </r>
       <r>  -15.6920    1.0000 </r>
       <r>  -15.6040    1.0000 </r>
       <r>  -15.5251    1.0000 </r>
       <r>  -15.4208    1.0000 </r>
       <r>  -15.3851    1.0000 </r>
       <r>   -9.6785    1.0000 </r>
       <r>   -9.5588    1.0000 </r>
       <r>   -9.3326    1.0000 </r>
       <r>   -8.8538    1.0000 </r>
       <r>   -8.7620    1.0000 </r>
       <r>   -8.6558    1.0000 </r>
       <r>   -8.5582    1.0000 </r>
       <r>   -8.4682    1.0000 </r>
       <r>   -8.4181    1.0000 </r>
       <r>   -8.3393    1.0000 </r>
       <r>   -8.3306    1.0000 </r>
       <r>   -8.2367    1.0000 </r>
       <r>   -8.1715    1.0000 </r>
       <r>   -8.0945    1.0000 </r>
       <r>   -8.0598    1.0000 </r>
       <r>   -7.9925    1.0000 </r>
       <r>   -7.8510    1.0000 </r>
       <r>   -7.6883    1.0000 </r>
       <r>   -7.5658    1.0000 </r>
       <r>   -7.4024    1.0000 </r>
       <r>   -7.3127    1.0000 </r>
       <r>   -7.2256    1.0000 </r>
       <r>   -7.1774    1.0000 </r>
       <r>   -7.0999    1.0000 </r>
       <r>   -7.0049    1.0000 </r>
       <r>   -6.9532    1.0000 </r>
       <r>   -6.9184    1.0000 </r>
       <r>   -6.7869    1.0000 </r>
       <r>   -6.7180    1.0000 </r>
       <r>   -6.5928    1.0000 </r>
       <r>   -6.4916    1.0000 </r>
       <r>   -6.4691    1.0000 </r>
       <r>   -6.4386    1.0000 </r>
       <r>   -6.3486    1.0000 </r>
       <r>   -6.2759    1.0000 </r>
       <r>   -6.1761    1.0000 </r>
       <r>   -6.1058    1.0000 </r>
       <r>   -6.0670    1.0000 </r>
       <r>   -5.9634    1.0000 </r>
       <r>   -5.9462    1.0000 </r>
       <r>   -5.7842    1.0000 </r>
       <r>   -5.7024    1.0000 </r>
       <r>   -5.6261    1.0000 </r>
       <r>   -5.6073    1.0000 </r>
       <r>   -5.5053    1.0000 </r>
       <r>   -5.4118    1.0000 </r>
       <r>   -5.3552    1.0000 </r>
       <r>   -5.2117    1.0000 </r>
       <r>   -5.0848    1.0000 </r>
       <r>   -4.9392    1.0000 </r>
       <r>   -4.8102    1.0000 </r>
       <r>   -4.7513    1.0000 </r>
       <r>   -4.7067    1.0000 </r>
       <r>   -4.4976    1.0000 </r>
       <r>   -4.3936    1.0000 </r>
       <r>   -4.1633    1.0000 </r>
       <r>   -4.0903    1.0000 </r>
       <r>   -3.8667    1.0000 </r>
       <r>   -3.7786    0.9997 </r>
       <r>   -3.6870    0.9971 </r>
       <r>   -3.5215    0.9437 </r>
       <r>   -3.3673    0.6899 </r>
       <r>   -3.0109    0.0215 </r>
       <r>   -2.8250    0.0004 </r>
       <r>   -2.7216    0.0000 </r>
       <r>   -2.6348    0.0000 </r>
       <r>   -2.4661    0.0000 </r>
       <r>   -2.3693    0.0000 </r>
       <r>   -2.1429    0.0000 </r>
       <r>   -2.0935    0.0000 </r>
       <r>   -1.8745    0.0000 </r>
       <r>   -1.7973    0.0000 </r>
       <r>   -1.6886    0.0000 </r>
       <r>   -1.6088    0.0000 </r>
       <r>   -1.4789    0.0000 </r>
       <r>   -1.3650    0.0000 </r>
       <r>   -1.2401    0.0000 </r>
       <r>   -1.1543    0.0000 </r>
       <r>   -1.0577    0.0000 </r>
       <r>   -1.0266    0.0000 </r>
       <r>   -0.9843    0.0000 </r>
       <r>   -0.9386    0.0000 </r>
       <r>   -0.8895    0.0000 </r>
       <r>   -0.8316    0.0000 </r>
       <r>   -0.6324    0.0000 </r>
       <r>   -0.5833    0.0000 </r>
       <r>   -0.5417    0.0000 </r>
       <r>   -0.4615    0.0000 </r>
       <r>   -0.3074    0.0000 </r>
       <r>   -0.1882    0.0000 </r>
       <r>    0.0221    0.0000 </r>
       <r>    0.2128    0.0000 </r>
       <r>    0.4977    0.0000 </r>
       <r>    0.6199    0.0000 </r>
       <r>    0.6914    0.0000 </r>
       <r>    0.8758    0.0000 </r>
       <r>    1.1415    0.0000 </r>
       <r>    1.2978    0.0000 </r>
       <r>    1.5576    0.0000 </r>
       <r>    2.1066    0.0000 </r>
       <r>    2.2585    0.0000 </r>
       <r>    2.5716    0.0000 </r>
      </set>
      <set comment="kpoint 33">
       <r>  -17.4942    1.0000 </r>
       <r>  -17.2854    1.0000 </r>
       <r>  -16.9177    1.0000 </r>
       <r>  -16.6629    1.0000 </r>
       <r>  -16.5261    1.0000 </r>
       <r>  -16.4358    1.0000 </r>
       <r>  -16.3215    1.0000 </r>
       <r>  -16.1446    1.0000 </r>
       <r>  -16.0848    1.0000 </r>
       <r>  -16.0224    1.0000 </r>
       <r>  -15.9383    1.0000 </r>
       <r>  -15.8290    1.0000 </r>
       <r>  -15.7493    1.0000 </r>
       <r>  -15.7032    1.0000 </r>
       <r>  -15.6077    1.0000 </r>
       <r>  -15.5294    1.0000 </r>
       <r>  -15.4333    1.0000 </r>
       <r>  -15.3854    1.0000 </r>
       <r>   -9.7351    1.0000 </r>
       <r>   -9.4423    1.0000 </r>
       <r>   -9.2679    1.0000 </r>
       <r>   -8.9066    1.0000 </r>
       <r>   -8.8334    1.0000 </r>
       <r>   -8.7906    1.0000 </r>
       <r>   -8.6007    1.0000 </r>
       <r>   -8.5395    1.0000 </r>
       <r>   -8.4109    1.0000 </r>
       <r>   -8.3405    1.0000 </r>
       <r>   -8.2572    1.0000 </r>
       <r>   -8.1773    1.0000 </r>
       <r>   -8.1597    1.0000 </r>
       <r>   -8.0418    1.0000 </r>
       <r>   -7.9899    1.0000 </r>
       <r>   -7.9460    1.0000 </r>
       <r>   -7.8289    1.0000 </r>
       <r>   -7.7080    1.0000 </r>
       <r>   -7.5107    1.0000 </r>
       <r>   -7.4610    1.0000 </r>
       <r>   -7.3315    1.0000 </r>
       <r>   -7.2864    1.0000 </r>
       <r>   -7.2185    1.0000 </r>
       <r>   -7.0737    1.0000 </r>
       <r>   -7.0388    1.0000 </r>
       <r>   -6.9744    1.0000 </r>
       <r>   -6.8734    1.0000 </r>
       <r>   -6.7896    1.0000 </r>
       <r>   -6.6216    1.0000 </r>
       <r>   -6.5458    1.0000 </r>
       <r>   -6.4968    1.0000 </r>
       <r>   -6.4650    1.0000 </r>
       <r>   -6.4132    1.0000 </r>
       <r>   -6.3281    1.0000 </r>
       <r>   -6.2863    1.0000 </r>
       <r>   -6.2305    1.0000 </r>
       <r>   -6.1676    1.0000 </r>
       <r>   -6.0436    1.0000 </r>
       <r>   -6.0006    1.0000 </r>
       <r>   -5.9095    1.0000 </r>
       <r>   -5.8858    1.0000 </r>
       <r>   -5.7177    1.0000 </r>
       <r>   -5.6849    1.0000 </r>
       <r>   -5.5406    1.0000 </r>
       <r>   -5.5031    1.0000 </r>
       <r>   -5.4332    1.0000 </r>
       <r>   -5.3890    1.0000 </r>
       <r>   -5.1755    1.0000 </r>
       <r>   -5.1179    1.0000 </r>
       <r>   -4.8995    1.0000 </r>
       <r>   -4.7882    1.0000 </r>
       <r>   -4.7183    1.0000 </r>
       <r>   -4.6006    1.0000 </r>
       <r>   -4.5002    1.0000 </r>
       <r>   -4.3545    1.0000 </r>
       <r>   -4.1418    1.0000 </r>
       <r>   -4.1128    1.0000 </r>
       <r>   -3.9378    1.0000 </r>
       <r>   -3.7922    0.9998 </r>
       <r>   -3.6989    0.9977 </r>
       <r>   -3.5573    0.9671 </r>
       <r>   -3.3543    0.6568 </r>
       <r>   -3.0417    0.0354 </r>
       <r>   -2.8461    0.0007 </r>
       <r>   -2.7203    0.0000 </r>
       <r>   -2.6190    0.0000 </r>
       <r>   -2.4595    0.0000 </r>
       <r>   -2.3727    0.0000 </r>
       <r>   -2.1215    0.0000 </r>
       <r>   -2.0878    0.0000 </r>
       <r>   -1.9008    0.0000 </r>
       <r>   -1.8147    0.0000 </r>
       <r>   -1.6538    0.0000 </r>
       <r>   -1.5627    0.0000 </r>
       <r>   -1.4778    0.0000 </r>
       <r>   -1.3435    0.0000 </r>
       <r>   -1.2566    0.0000 </r>
       <r>   -1.1962    0.0000 </r>
       <r>   -1.0609    0.0000 </r>
       <r>   -1.0288    0.0000 </r>
       <r>   -1.0145    0.0000 </r>
       <r>   -0.9865    0.0000 </r>
       <r>   -0.8835    0.0000 </r>
       <r>   -0.7959    0.0000 </r>
       <r>   -0.6553    0.0000 </r>
       <r>   -0.6121    0.0000 </r>
       <r>   -0.5009    0.0000 </r>
       <r>   -0.4486    0.0000 </r>
       <r>   -0.3343    0.0000 </r>
       <r>   -0.1450    0.0000 </r>
       <r>    0.0107    0.0000 </r>
       <r>    0.2062    0.0000 </r>
       <r>    0.3755    0.0000 </r>
       <r>    0.6845    0.0000 </r>
       <r>    0.8055    0.0000 </r>
       <r>    0.8835    0.0000 </r>
       <r>    1.1648    0.0000 </r>
       <r>    1.2710    0.0000 </r>
       <r>    1.5588    0.0000 </r>
       <r>    2.1391    0.0000 </r>
       <r>    2.2916    0.0000 </r>
       <r>    2.3940    0.0000 </r>
      </set>
      <set comment="kpoint 34">
       <r>  -17.4668    1.0000 </r>
       <r>  -17.3498    1.0000 </r>
       <r>  -16.7589    1.0000 </r>
       <r>  -16.6898    1.0000 </r>
       <r>  -16.6380    1.0000 </r>
       <r>  -16.4706    1.0000 </r>
       <r>  -16.3214    1.0000 </r>
       <r>  -16.1085    1.0000 </r>
       <r>  -16.1027    1.0000 </r>
       <r>  -16.0180    1.0000 </r>
       <r>  -15.8886    1.0000 </r>
       <r>  -15.8211    1.0000 </r>
       <r>  -15.7337    1.0000 </r>
       <r>  -15.7221    1.0000 </r>
       <r>  -15.6146    1.0000 </r>
       <r>  -15.5410    1.0000 </r>
       <r>  -15.4410    1.0000 </r>
       <r>  -15.3850    1.0000 </r>
       <r>   -9.7685    1.0000 </r>
       <r>   -9.3193    1.0000 </r>
       <r>   -9.1429    1.0000 </r>
       <r>   -9.0809    1.0000 </r>
       <r>   -8.9322    1.0000 </r>
       <r>   -8.8393    1.0000 </r>
       <r>   -8.5953    1.0000 </r>
       <r>   -8.5773    1.0000 </r>
       <r>   -8.4181    1.0000 </r>
       <r>   -8.3427    1.0000 </r>
       <r>   -8.2492    1.0000 </r>
       <r>   -8.1467    1.0000 </r>
       <r>   -8.1391    1.0000 </r>
       <r>   -7.9957    1.0000 </r>
       <r>   -7.9298    1.0000 </r>
       <r>   -7.8977    1.0000 </r>
       <r>   -7.8080    1.0000 </r>
       <r>   -7.6235    1.0000 </r>
       <r>   -7.5350    1.0000 </r>
       <r>   -7.5109    1.0000 </r>
       <r>   -7.4468    1.0000 </r>
       <r>   -7.2848    1.0000 </r>
       <r>   -7.2791    1.0000 </r>
       <r>   -7.0693    1.0000 </r>
       <r>   -7.0180    1.0000 </r>
       <r>   -6.9479    1.0000 </r>
       <r>   -6.8821    1.0000 </r>
       <r>   -6.6247    1.0000 </r>
       <r>   -6.5740    1.0000 </r>
       <r>   -6.5321    1.0000 </r>
       <r>   -6.5056    1.0000 </r>
       <r>   -6.4711    1.0000 </r>
       <r>   -6.4352    1.0000 </r>
       <r>   -6.3877    1.0000 </r>
       <r>   -6.3455    1.0000 </r>
       <r>   -6.2367    1.0000 </r>
       <r>   -6.2074    1.0000 </r>
       <r>   -6.0789    1.0000 </r>
       <r>   -5.9938    1.0000 </r>
       <r>   -5.9122    1.0000 </r>
       <r>   -5.8287    1.0000 </r>
       <r>   -5.7455    1.0000 </r>
       <r>   -5.6743    1.0000 </r>
       <r>   -5.5981    1.0000 </r>
       <r>   -5.5209    1.0000 </r>
       <r>   -5.4613    1.0000 </r>
       <r>   -5.4139    1.0000 </r>
       <r>   -5.1270    1.0000 </r>
       <r>   -5.0829    1.0000 </r>
       <r>   -4.9060    1.0000 </r>
       <r>   -4.8113    1.0000 </r>
       <r>   -4.6422    1.0000 </r>
       <r>   -4.5816    1.0000 </r>
       <r>   -4.3989    1.0000 </r>
       <r>   -4.3472    1.0000 </r>
       <r>   -4.1713    1.0000 </r>
       <r>   -4.1077    1.0000 </r>
       <r>   -3.9989    1.0000 </r>
       <r>   -3.8257    0.9999 </r>
       <r>   -3.7037    0.9980 </r>
       <r>   -3.5745    0.9751 </r>
       <r>   -3.3351    0.6056 </r>
       <r>   -3.0581    0.0454 </r>
       <r>   -2.8543    0.0009 </r>
       <r>   -2.7306    0.0000 </r>
       <r>   -2.6083    0.0000 </r>
       <r>   -2.4521    0.0000 </r>
       <r>   -2.3815    0.0000 </r>
       <r>   -2.1124    0.0000 </r>
       <r>   -2.0758    0.0000 </r>
       <r>   -1.9045    0.0000 </r>
       <r>   -1.8251    0.0000 </r>
       <r>   -1.6328    0.0000 </r>
       <r>   -1.5314    0.0000 </r>
       <r>   -1.4795    0.0000 </r>
       <r>   -1.3099    0.0000 </r>
       <r>   -1.2866    0.0000 </r>
       <r>   -1.2217    0.0000 </r>
       <r>   -1.0711    0.0000 </r>
       <r>   -1.0594    0.0000 </r>
       <r>   -1.0040    0.0000 </r>
       <r>   -1.0008    0.0000 </r>
       <r>   -0.8823    0.0000 </r>
       <r>   -0.7540    0.0000 </r>
       <r>   -0.6999    0.0000 </r>
       <r>   -0.6202    0.0000 </r>
       <r>   -0.5114    0.0000 </r>
       <r>   -0.4014    0.0000 </r>
       <r>   -0.3762    0.0000 </r>
       <r>   -0.1421    0.0000 </r>
       <r>    0.0692    0.0000 </r>
       <r>    0.2118    0.0000 </r>
       <r>    0.2642    0.0000 </r>
       <r>    0.7157    0.0000 </r>
       <r>    0.8653    0.0000 </r>
       <r>    0.9214    0.0000 </r>
       <r>    1.1295    0.0000 </r>
       <r>    1.2892    0.0000 </r>
       <r>    1.5595    0.0000 </r>
       <r>    2.2249    0.0000 </r>
       <r>    2.2461    0.0000 </r>
       <r>    2.3711    0.0000 </r>
      </set>
     </set>
    </set>
   </array>
  </eigenvalues>
  <separator name="orbital magnetization" >
   <v name="MAGDIPOLOUT">      0.00000000      0.00000000      0.00000000</v>
  </separator>
 </calculation>
 <structure name="finalpos" >
  <crystal>
   <varray name="basis" >
    <v>       8.34866175       4.82639949       0.00000000 </v>
    <v>      -8.34181911       4.81463239       0.00000000 </v>
    <v>       0.00000000       0.00000000      30.00000000 </v>
   </varray>
   <i name="volume">   2413.70066140 </i>
   <varray name="rec_basis" >
    <v>       0.05984129       0.10368087       0.00000000 </v>
    <v>      -0.05998755       0.10376591       0.00000000 </v>
    <v>       0.00000000       0.00000000       0.03333333 </v>
   </varray>
  </crystal>
  <varray name="positions" >
   <v>       0.31515104       0.34846973      -0.00198379 </v>
   <v>      -0.00968366      -0.02452612       0.00075062 </v>
   <v>       0.29551031       0.65043965       0.00079117 </v>
   <v>      -0.00707213       0.65993411       0.00027867 </v>
   <v>       0.69554577       0.67533399      -0.00081906 </v>
   <v>       0.99796448       0.35091351       0.00046856 </v>
   <v>       0.29469071      -0.02697981       0.00128935 </v>
   <v>       0.70613304       0.00085981      -0.00078999 </v>
   <v>       0.69996129       0.36542967      -0.00037959 </v>
   <v>       0.10701594       0.21822461       0.95280605 </v>
   <v>       0.21778360       0.11212064       0.04980026 </v>
   <v>       0.10999293       0.55770465       0.94565975 </v>
   <v>       0.22583945       0.44910973       0.05281513 </v>
   <v>       0.10179110       0.88645407       0.94581519 </v>
   <v>       0.21844692       0.76858368       0.05498981 </v>
   <v>       0.44252677       0.22579565       0.95726417 </v>
   <v>       0.55885193       0.10937470       0.04183264 </v>
   <v>       0.44093075       0.56315467       0.95299345 </v>
   <v>       0.55416682       0.44326984       0.04832763 </v>
   <v>       0.44384396       0.88337274       0.95497230 </v>
   <v>       0.55019688       0.77387393       0.04474258 </v>
   <v>       0.77577216       0.22100062       0.94743211 </v>
   <v>       0.90527998       0.11210478       0.05198356 </v>
   <v>       0.78042636       0.55667201       0.94273221 </v>
   <v>       0.89154194       0.44835747       0.05723348 </v>
   <v>       0.79064947       0.88921298       0.94404211 </v>
   <v>       0.89495663       0.77995314       0.05495154 </v>
  </varray>
 </structure>
</modeling>
