   27   27  100    1
  0.9710400E+02  0.1002848E-08  0.1002848E-08  0.3000000E-08  0.5000000E-15
  1.000000000000000E-004
  CAR 
 unknown system                          
    159     34    120
 
  0.0000000E+00  0.0000000E+00  0.0000000E+00  0.1562500E-01
    1      -17.807214   1.000000
    2      -16.746766   1.000000
    3      -16.620293   1.000000
    4      -16.609767   1.000000
    5      -16.529006   1.000000
    6      -16.475368   1.000000
    7      -16.373620   1.000000
    8      -16.319476   1.000000
    9      -16.200499   1.000000
   10      -16.100116   1.000000
   11      -16.049272   1.000000
   12      -16.032067   1.000000
   13      -15.855696   1.000000
   14      -15.721417   1.000000
   15      -15.563377   1.000000
   16      -15.487449   1.000000
   17      -15.431047   1.000000
   18      -15.202041   1.000000
   19       -9.241069   1.000000
   20       -8.993432   1.000000
   21       -8.936687   1.000000
   22       -8.862315   1.000000
   23       -8.741533   1.000000
   24       -8.681449   1.000000
   25       -8.632842   1.000000
   26       -8.612071   1.000000
   27       -8.577805   1.000000
   28       -8.411635   1.000000
   29       -8.353797   1.000000
   30       -8.299081   1.000000
   31       -8.283073   1.000000
   32       -8.221154   1.000000
   33       -8.130138   1.000000
   34       -8.028427   1.000000
   35       -7.869488   1.000000
   36       -7.817805   1.000000
   37       -7.713975   1.000000
   38       -7.547428   1.000000
   39       -7.424169   1.000000
   40       -7.420743   1.000000
   41       -7.354497   1.000000
   42       -7.245359   1.000000
   43       -7.114609   1.000000
   44       -6.953524   1.000000
   45       -6.862556   1.000000
   46       -6.807354   1.000000
   47       -6.712356   1.000000
   48       -6.687730   1.000000
   49       -6.593411   1.000000
   50       -6.513553   1.000000
   51       -6.457606   1.000000
   52       -6.392511   1.000000
   53       -6.321285   1.000000
   54       -6.276254   1.000000
   55       -6.166479   1.000000
   56       -6.049582   1.000000
   57       -5.992924   1.000000
   58       -5.873238   1.000000
   59       -5.755882   1.000000
   60       -5.582376   1.000000
   61       -5.518888   1.000000
   62       -5.484647   1.000000
   63       -5.252362   1.000000
   64       -5.102403   1.000000
   65       -5.034746   1.000000
   66       -5.007263   1.000000
   67       -4.937526   1.000000
   68       -4.850174   1.000000
   69       -4.761123   1.000000
   70       -4.740179   1.000000
   71       -4.617372   1.000000
   72       -4.567383   1.000000
   73       -4.496402   1.000000
   74       -4.219960   1.000000
   75       -4.116021   1.000000
   76       -4.075466   1.000000
   77       -3.783644   0.998478
   78       -3.570826   0.927627
   79       -3.516826   0.859150
   80       -3.424301   0.663581
   81       -3.310003   0.349767
   82       -2.816716   0.000054
   83       -2.679418   0.000001
   84       -2.641120   0.000000
   85       -2.489609   0.000000
   86       -2.425092   0.000000
   87       -2.269015   0.000000
   88       -2.179655   0.000000
   89       -2.082192   0.000000
   90       -1.934364   0.000000
   91       -1.804619   0.000000
   92       -1.456226   0.000000
   93       -1.356625   0.000000
   94       -1.277977   0.000000
   95       -1.124176   0.000000
   96       -1.045633   0.000000
   97       -0.966452   0.000000
   98       -0.952712   0.000000
   99       -0.868058   0.000000
  100       -0.732495   0.000000
  101       -0.695017   0.000000
  102       -0.552652   0.000000
  103       -0.457203   0.000000
  104       -0.348017   0.000000
  105       -0.191445   0.000000
  106       -0.128645   0.000000
  107       -0.078896   0.000000
  108       -0.035335   0.000000
  109        0.140726   0.000000
  110        0.242367   0.000000
  111        0.320421   0.000000
  112        0.403033   0.000000
  113        0.449398   0.000000
  114        0.783516   0.000000
  115        1.024719   0.000000
  116        1.145289   0.000000
  117        1.390890   0.000000
  118        1.638607   0.000000
  119        1.831950   0.000000
  120        2.145729   0.000000
 
  0.1250000E+00  0.2775558E-16  0.0000000E+00  0.3125000E-01
    1      -17.782089   1.000000
    2      -16.807132   1.000000
    3      -16.697144   1.000000
    4      -16.648986   1.000000
    5      -16.520847   1.000000
    6      -16.398281   1.000000
    7      -16.379882   1.000000
    8      -16.294667   1.000000
    9      -16.208019   1.000000
   10      -16.096664   1.000000
   11      -16.048125   1.000000
   12      -15.945515   1.000000
   13      -15.843104   1.000000
   14      -15.734774   1.000000
   15      -15.578032   1.000000
   16      -15.487797   1.000000
   17      -15.435424   1.000000
   18      -15.206878   1.000000
   19       -9.262627   1.000000
   20       -9.149195   1.000000
   21       -9.014160   1.000000
   22       -8.892482   1.000000
   23       -8.808870   1.000000
   24       -8.744664   1.000000
   25       -8.693792   1.000000
   26       -8.538832   1.000000
   27       -8.498684   1.000000
   28       -8.411781   1.000000
   29       -8.324577   1.000000
   30       -8.271503   1.000000
   31       -8.205442   1.000000
   32       -8.118326   1.000000
   33       -8.040747   1.000000
   34       -7.990683   1.000000
   35       -7.822058   1.000000
   36       -7.768694   1.000000
   37       -7.664846   1.000000
   38       -7.555850   1.000000
   39       -7.471664   1.000000
   40       -7.448792   1.000000
   41       -7.304941   1.000000
   42       -7.256215   1.000000
   43       -7.103092   1.000000
   44       -6.996041   1.000000
   45       -6.942572   1.000000
   46       -6.796350   1.000000
   47       -6.695318   1.000000
   48       -6.633067   1.000000
   49       -6.606140   1.000000
   50       -6.516581   1.000000
   51       -6.456451   1.000000
   52       -6.394562   1.000000
   53       -6.308940   1.000000
   54       -6.297176   1.000000
   55       -6.124333   1.000000
   56       -6.062515   1.000000
   57       -5.966305   1.000000
   58       -5.887114   1.000000
   59       -5.746191   1.000000
   60       -5.596256   1.000000
   61       -5.549964   1.000000
   62       -5.491452   1.000000
   63       -5.337352   1.000000
   64       -5.257795   1.000000
   65       -5.031492   1.000000
   66       -4.965866   1.000000
   67       -4.924820   1.000000
   68       -4.892529   1.000000
   69       -4.761668   1.000000
   70       -4.682355   1.000000
   71       -4.584534   1.000000
   72       -4.536692   1.000000
   73       -4.462277   1.000000
   74       -4.200623   1.000000
   75       -4.092353   1.000000
   76       -4.041960   0.999999
   77       -3.880774   0.999869
   78       -3.693309   0.989949
   79       -3.556610   0.912740
   80       -3.320335   0.377182
   81       -3.298867   0.321076
   82       -2.783088   0.000020
   83       -2.660631   0.000000
   84       -2.607764   0.000000
   85       -2.486540   0.000000
   86       -2.408164   0.000000
   87       -2.247954   0.000000
   88       -2.149840   0.000000
   89       -2.071962   0.000000
   90       -1.939697   0.000000
   91       -1.789605   0.000000
   92       -1.466597   0.000000
   93       -1.360958   0.000000
   94       -1.280053   0.000000
   95       -1.129311   0.000000
   96       -1.049860   0.000000
   97       -1.005825   0.000000
   98       -0.946487   0.000000
   99       -0.855080   0.000000
  100       -0.788183   0.000000
  101       -0.729522   0.000000
  102       -0.618820   0.000000
  103       -0.514957   0.000000
  104       -0.424331   0.000000
  105       -0.328248   0.000000
  106       -0.202562   0.000000
  107       -0.108726   0.000000
  108        0.107165   0.000000
  109        0.157352   0.000000
  110        0.272242   0.000000
  111        0.307071   0.000000
  112        0.428800   0.000000
  113        0.554337   0.000000
  114        0.844922   0.000000
  115        1.007961   0.000000
  116        1.138323   0.000000
  117        1.332143   0.000000
  118        1.680847   0.000000
  119        1.871455   0.000000
  120        2.180590   0.000000
 
  0.2500000E+00  0.5551115E-16  0.0000000E+00  0.3125000E-01
    1      -17.707721   1.000000
    2      -17.006342   1.000000
    3      -16.724747   1.000000
    4      -16.684913   1.000000
    5      -16.570226   1.000000
    6      -16.374421   1.000000
    7      -16.307390   1.000000
    8      -16.263348   1.000000
    9      -16.185995   1.000000
   10      -16.065987   1.000000
   11      -16.031017   1.000000
   12      -15.832720   1.000000
   13      -15.809353   1.000000
   14      -15.752812   1.000000
   15      -15.611961   1.000000
   16      -15.487777   1.000000
   17      -15.450196   1.000000
   18      -15.219326   1.000000
   19       -9.504239   1.000000
   20       -9.206657   1.000000
   21       -9.113969   1.000000
   22       -8.986644   1.000000
   23       -8.928182   1.000000
   24       -8.781405   1.000000
   25       -8.666317   1.000000
   26       -8.506642   1.000000
   27       -8.455850   1.000000
   28       -8.406464   1.000000
   29       -8.253959   1.000000
   30       -8.181561   1.000000
   31       -8.149543   1.000000
   32       -8.052676   1.000000
   33       -7.950047   1.000000
   34       -7.843347   1.000000
   35       -7.789897   1.000000
   36       -7.645261   1.000000
   37       -7.628035   1.000000
   38       -7.560993   1.000000
   39       -7.437525   1.000000
   40       -7.377259   1.000000
   41       -7.299526   1.000000
   42       -7.201854   1.000000
   43       -7.089383   1.000000
   44       -7.029953   1.000000
   45       -6.968727   1.000000
   46       -6.839526   1.000000
   47       -6.683384   1.000000
   48       -6.647134   1.000000
   49       -6.569489   1.000000
   50       -6.506692   1.000000
   51       -6.443719   1.000000
   52       -6.387057   1.000000
   53       -6.300357   1.000000
   54       -6.206739   1.000000
   55       -6.159128   1.000000
   56       -6.059089   1.000000
   57       -5.954569   1.000000
   58       -5.868039   1.000000
   59       -5.758172   1.000000
   60       -5.703415   1.000000
   61       -5.616915   1.000000
   62       -5.562920   1.000000
   63       -5.523277   1.000000
   64       -5.405804   1.000000
   65       -5.142036   1.000000
   66       -4.990903   1.000000
   67       -4.847397   1.000000
   68       -4.811326   1.000000
   69       -4.746922   1.000000
   70       -4.647407   1.000000
   71       -4.539623   1.000000
   72       -4.493261   1.000000
   73       -4.382600   1.000000
   74       -4.247866   1.000000
   75       -4.072452   1.000000
   76       -3.996870   0.999996
   77       -3.954349   0.999985
   78       -3.874196   0.999843
   79       -3.573116   0.929832
   80       -3.309472   0.348377
   81       -3.216117   0.146900
   82       -2.725465   0.000003
   83       -2.616694   0.000000
   84       -2.526089   0.000000
   85       -2.466275   0.000000
   86       -2.372360   0.000000
   87       -2.190702   0.000000
   88       -2.105835   0.000000
   89       -2.032647   0.000000
   90       -1.917445   0.000000
   91       -1.748545   0.000000
   92       -1.486627   0.000000
   93       -1.370272   0.000000
   94       -1.311090   0.000000
   95       -1.171950   0.000000
   96       -1.089014   0.000000
   97       -1.064348   0.000000
   98       -0.975363   0.000000
   99       -0.901403   0.000000
  100       -0.828224   0.000000
  101       -0.798809   0.000000
  102       -0.742366   0.000000
  103       -0.658725   0.000000
  104       -0.546047   0.000000
  105       -0.435987   0.000000
  106       -0.319638   0.000000
  107       -0.164249   0.000000
  108        0.065512   0.000000
  109        0.180402   0.000000
  110        0.280939   0.000000
  111        0.422349   0.000000
  112        0.514984   0.000000
  113        0.729111   0.000000
  114        0.905992   0.000000
  115        1.031727   0.000000
  116        1.131034   0.000000
  117        1.227796   0.000000
  118        1.802207   0.000000
  119        1.984050   0.000000
  120        2.284148   0.000000
 
  0.3750000E+00  0.0000000E+00  0.0000000E+00  0.3125000E-01
    1      -17.587751   1.000000
    2      -17.220620   1.000000
    3      -16.754613   1.000000
    4      -16.690114   1.000000
    5      -16.609228   1.000000
    6      -16.377023   1.000000
    7      -16.293349   1.000000
    8      -16.237964   1.000000
    9      -16.097496   1.000000
   10      -16.022463   1.000000
   11      -16.006731   1.000000
   12      -15.859799   1.000000
   13      -15.786824   1.000000
   14      -15.713826   1.000000
   15      -15.605915   1.000000
   16      -15.490822   1.000000
   17      -15.470673   1.000000
   18      -15.233324   1.000000
   19       -9.709189   1.000000
   20       -9.319135   1.000000
   21       -9.103379   1.000000
   22       -9.080250   1.000000
   23       -8.937162   1.000000
   24       -8.827359   1.000000
   25       -8.599922   1.000000
   26       -8.482732   1.000000
   27       -8.413330   1.000000
   28       -8.333790   1.000000
   29       -8.274970   1.000000
   30       -8.230215   1.000000
   31       -8.128076   1.000000
   32       -8.032938   1.000000
   33       -7.857121   1.000000
   34       -7.842598   1.000000
   35       -7.753857   1.000000
   36       -7.712954   1.000000
   37       -7.605661   1.000000
   38       -7.465435   1.000000
   39       -7.332434   1.000000
   40       -7.289614   1.000000
   41       -7.236037   1.000000
   42       -7.135339   1.000000
   43       -7.067420   1.000000
   44       -6.964619   1.000000
   45       -6.896786   1.000000
   46       -6.836027   1.000000
   47       -6.700537   1.000000
   48       -6.611367   1.000000
   49       -6.511822   1.000000
   50       -6.491265   1.000000
   51       -6.440307   1.000000
   52       -6.392392   1.000000
   53       -6.277765   1.000000
   54       -6.160678   1.000000
   55       -6.129716   1.000000
   56       -6.081434   1.000000
   57       -5.999717   1.000000
   58       -5.915139   1.000000
   59       -5.852965   1.000000
   60       -5.800870   1.000000
   61       -5.720290   1.000000
   62       -5.694609   1.000000
   63       -5.590938   1.000000
   64       -5.452903   1.000000
   65       -5.201765   1.000000
   66       -4.960228   1.000000
   67       -4.858097   1.000000
   68       -4.793523   1.000000
   69       -4.740413   1.000000
   70       -4.683686   1.000000
   71       -4.595334   1.000000
   72       -4.464414   1.000000
   73       -4.337122   1.000000
   74       -4.225348   1.000000
   75       -4.111630   1.000000
   76       -4.014659   0.999998
   77       -3.931824   0.999970
   78       -3.849075   0.999694
   79       -3.581830   0.937750
   80       -3.325719   0.391726
   81       -3.166555   0.080714
   82       -2.680068   0.000001
   83       -2.593131   0.000000
   84       -2.477132   0.000000
   85       -2.399595   0.000000
   86       -2.322594   0.000000
   87       -2.139872   0.000000
   88       -2.098880   0.000000
   89       -1.971554   0.000000
   90       -1.830578   0.000000
   91       -1.702295   0.000000
   92       -1.491390   0.000000
   93       -1.421517   0.000000
   94       -1.369320   0.000000
   95       -1.254872   0.000000
   96       -1.144280   0.000000
   97       -1.114939   0.000000
   98       -1.012220   0.000000
   99       -0.978709   0.000000
  100       -0.927844   0.000000
  101       -0.852727   0.000000
  102       -0.794684   0.000000
  103       -0.706064   0.000000
  104       -0.604790   0.000000
  105       -0.522825   0.000000
  106       -0.416205   0.000000
  107       -0.213865   0.000000
  108       -0.020430   0.000000
  109        0.163878   0.000000
  110        0.299841   0.000000
  111        0.495353   0.000000
  112        0.577153   0.000000
  113        0.805804   0.000000
  114        0.960054   0.000000
  115        1.080916   0.000000
  116        1.114591   0.000000
  117        1.222604   0.000000
  118        1.984882   0.000000
  119        2.158300   0.000000
  120        2.453158   0.000000
 
  0.5000000E+00  0.1110223E-15  0.0000000E+00  0.1562500E-01
    1      -17.456608   1.000000
    2      -17.385162   1.000000
    3      -16.766593   1.000000
    4      -16.691865   1.000000
    5      -16.619956   1.000000
    6      -16.384055   1.000000
    7      -16.291981   1.000000
    8      -16.227431   1.000000
    9      -16.036820   1.000000
   10      -16.011367   1.000000
   11      -15.988942   1.000000
   12      -15.890345   1.000000
   13      -15.795111   1.000000
   14      -15.711712   1.000000
   15      -15.572474   1.000000
   16      -15.491968   1.000000
   17      -15.484709   1.000000
   18      -15.239803   1.000000
   19       -9.783453   1.000000
   20       -9.360375   1.000000
   21       -9.126922   1.000000
   22       -9.108074   1.000000
   23       -8.887969   1.000000
   24       -8.848134   1.000000
   25       -8.564563   1.000000
   26       -8.518367   1.000000
   27       -8.392339   1.000000
   28       -8.282286   1.000000
   29       -8.268152   1.000000
   30       -8.239631   1.000000
   31       -8.144854   1.000000
   32       -8.022758   1.000000
   33       -7.900726   1.000000
   34       -7.839295   1.000000
   35       -7.792514   1.000000
   36       -7.702720   1.000000
   37       -7.597330   1.000000
   38       -7.430704   1.000000
   39       -7.319884   1.000000
   40       -7.215536   1.000000
   41       -7.178832   1.000000
   42       -7.097689   1.000000
   43       -7.018686   1.000000
   44       -6.971689   1.000000
   45       -6.898657   1.000000
   46       -6.758264   1.000000
   47       -6.673512   1.000000
   48       -6.565818   1.000000
   49       -6.537074   1.000000
   50       -6.472897   1.000000
   51       -6.440454   1.000000
   52       -6.335044   1.000000
   53       -6.298900   1.000000
   54       -6.240406   1.000000
   55       -6.161619   1.000000
   56       -6.083530   1.000000
   57       -6.038491   1.000000
   58       -5.940731   1.000000
   59       -5.873842   1.000000
   60       -5.814459   1.000000
   61       -5.736009   1.000000
   62       -5.670110   1.000000
   63       -5.560852   1.000000
   64       -5.541028   1.000000
   65       -5.173214   1.000000
   66       -5.118409   1.000000
   67       -4.935573   1.000000
   68       -4.780710   1.000000
   69       -4.722946   1.000000
   70       -4.659273   1.000000
   71       -4.573490   1.000000
   72       -4.452158   1.000000
   73       -4.300950   1.000000
   74       -4.232146   1.000000
   75       -4.173646   1.000000
   76       -3.981110   0.999993
   77       -3.916987   0.999953
   78       -3.812734   0.999235
   79       -3.580689   0.936754
   80       -3.338982   0.428167
   81       -3.151630   0.066057
   82       -2.660287   0.000000
   83       -2.593048   0.000000
   84       -2.457494   0.000000
   85       -2.373124   0.000000
   86       -2.288066   0.000000
   87       -2.123198   0.000000
   88       -2.102028   0.000000
   89       -1.933995   0.000000
   90       -1.774289   0.000000
   91       -1.694505   0.000000
   92       -1.497855   0.000000
   93       -1.454297   0.000000
   94       -1.362191   0.000000
   95       -1.321252   0.000000
   96       -1.173760   0.000000
   97       -1.134559   0.000000
   98       -1.052448   0.000000
   99       -1.019727   0.000000
  100       -0.955728   0.000000
  101       -0.868010   0.000000
  102       -0.807492   0.000000
  103       -0.701840   0.000000
  104       -0.631021   0.000000
  105       -0.550259   0.000000
  106       -0.458824   0.000000
  107       -0.233917   0.000000
  108       -0.049795   0.000000
  109        0.151070   0.000000
  110        0.307896   0.000000
  111        0.517391   0.000000
  112        0.576223   0.000000
  113        0.822413   0.000000
  114        0.992827   0.000000
  115        1.089802   0.000000
  116        1.115161   0.000000
  117        1.246729   0.000000
  118        2.189561   0.000000
  119        2.244274   0.000000
  120        2.367134   0.000000
 
  0.0000000E+00  0.1250000E+00  0.0000000E+00  0.3125000E-01
    1      -17.782732   1.000000
    2      -16.767307   1.000000
    3      -16.730678   1.000000
    4      -16.638256   1.000000
    5      -16.536431   1.000000
    6      -16.461142   1.000000
    7      -16.330799   1.000000
    8      -16.288480   1.000000
    9      -16.213442   1.000000
   10      -16.062570   1.000000
   11      -16.030778   1.000000
   12      -15.996155   1.000000
   13      -15.838095   1.000000
   14      -15.727606   1.000000
   15      -15.578198   1.000000
   16      -15.483369   1.000000
   17      -15.435849   1.000000
   18      -15.211463   1.000000
   19       -9.253993   1.000000
   20       -9.098395   1.000000
   21       -9.018803   1.000000
   22       -8.934644   1.000000
   23       -8.765073   1.000000
   24       -8.749243   1.000000
   25       -8.716917   1.000000
   26       -8.585233   1.000000
   27       -8.522483   1.000000
   28       -8.457634   1.000000
   29       -8.326278   1.000000
   30       -8.266410   1.000000
   31       -8.205277   1.000000
   32       -8.089521   1.000000
   33       -8.000954   1.000000
   34       -7.967417   1.000000
   35       -7.817359   1.000000
   36       -7.762782   1.000000
   37       -7.672174   1.000000
   38       -7.550812   1.000000
   39       -7.500548   1.000000
   40       -7.414844   1.000000
   41       -7.299374   1.000000
   42       -7.234598   1.000000
   43       -7.124831   1.000000
   44       -7.014847   1.000000
   45       -6.900063   1.000000
   46       -6.833378   1.000000
   47       -6.765350   1.000000
   48       -6.672604   1.000000
   49       -6.607396   1.000000
   50       -6.474687   1.000000
   51       -6.435985   1.000000
   52       -6.380768   1.000000
   53       -6.318799   1.000000
   54       -6.251581   1.000000
   55       -6.158860   1.000000
   56       -6.060839   1.000000
   57       -5.970790   1.000000
   58       -5.870914   1.000000
   59       -5.719042   1.000000
   60       -5.588983   1.000000
   61       -5.534157   1.000000
   62       -5.475310   1.000000
   63       -5.331667   1.000000
   64       -5.182998   1.000000
   65       -5.130600   1.000000
   66       -5.062754   1.000000
   67       -4.939185   1.000000
   68       -4.877246   1.000000
   69       -4.804682   1.000000
   70       -4.668398   1.000000
   71       -4.571231   1.000000
   72       -4.509896   1.000000
   73       -4.400982   1.000000
   74       -4.217408   1.000000
   75       -4.095008   1.000000
   76       -3.997863   0.999996
   77       -3.863079   0.999788
   78       -3.730125   0.995128
   79       -3.549433   0.904406
   80       -3.428795   0.675097
   81       -3.167681   0.081913
   82       -2.803564   0.000036
   83       -2.685173   0.000001
   84       -2.630293   0.000000
   85       -2.503090   0.000000
   86       -2.395793   0.000000
   87       -2.274488   0.000000
   88       -2.131332   0.000000
   89       -2.065313   0.000000
   90       -1.934882   0.000000
   91       -1.807683   0.000000
   92       -1.470102   0.000000
   93       -1.345571   0.000000
   94       -1.277721   0.000000
   95       -1.138473   0.000000
   96       -1.045948   0.000000
   97       -0.967575   0.000000
   98       -0.947922   0.000000
   99       -0.855673   0.000000
  100       -0.800237   0.000000
  101       -0.734428   0.000000
  102       -0.625640   0.000000
  103       -0.540117   0.000000
  104       -0.340967   0.000000
  105       -0.210484   0.000000
  106       -0.198302   0.000000
  107       -0.138608   0.000000
  108       -0.014971   0.000000
  109        0.072885   0.000000
  110        0.233739   0.000000
  111        0.318360   0.000000
  112        0.452807   0.000000
  113        0.549778   0.000000
  114        0.862608   0.000000
  115        1.026165   0.000000
  116        1.154089   0.000000
  117        1.355893   0.000000
  118        1.683725   0.000000
  119        1.870641   0.000000
  120        2.180759   0.000000
 
  0.1250000E+00  0.1250000E+00  0.0000000E+00  0.3125000E-01
    1      -17.734192   1.000000
    2      -16.889739   1.000000
    3      -16.816483   1.000000
    4      -16.677902   1.000000
    5      -16.472293   1.000000
    6      -16.418503   1.000000
    7      -16.314598   1.000000
    8      -16.291284   1.000000
    9      -16.215291   1.000000
   10      -16.047489   1.000000
   11      -16.020044   1.000000
   12      -15.895786   1.000000
   13      -15.811495   1.000000
   14      -15.738992   1.000000
   15      -15.594021   1.000000
   16      -15.491705   1.000000
   17      -15.444258   1.000000
   18      -15.220488   1.000000
   19       -9.351811   1.000000
   20       -9.283946   1.000000
   21       -9.073660   1.000000
   22       -9.017672   1.000000
   23       -8.829191   1.000000
   24       -8.750935   1.000000
   25       -8.647227   1.000000
   26       -8.578965   1.000000
   27       -8.500284   1.000000
   28       -8.431480   1.000000
   29       -8.285340   1.000000
   30       -8.217310   1.000000
   31       -8.137642   1.000000
   32       -8.092799   1.000000
   33       -7.944279   1.000000
   34       -7.861116   1.000000
   35       -7.795664   1.000000
   36       -7.700308   1.000000
   37       -7.598912   1.000000
   38       -7.474813   1.000000
   39       -7.443032   1.000000
   40       -7.370284   1.000000
   41       -7.344834   1.000000
   42       -7.248898   1.000000
   43       -7.117521   1.000000
   44       -7.036043   1.000000
   45       -6.976957   1.000000
   46       -6.837339   1.000000
   47       -6.710640   1.000000
   48       -6.694801   1.000000
   49       -6.548225   1.000000
   50       -6.509583   1.000000
   51       -6.420079   1.000000
   52       -6.386309   1.000000
   53       -6.319219   1.000000
   54       -6.200838   1.000000
   55       -6.154980   1.000000
   56       -6.056095   1.000000
   57       -5.945417   1.000000
   58       -5.865283   1.000000
   59       -5.732191   1.000000
   60       -5.655760   1.000000
   61       -5.604253   1.000000
   62       -5.528106   1.000000
   63       -5.455768   1.000000
   64       -5.313227   1.000000
   65       -5.144605   1.000000
   66       -5.064031   1.000000
   67       -4.965118   1.000000
   68       -4.841215   1.000000
   69       -4.775504   1.000000
   70       -4.617948   1.000000
   71       -4.515051   1.000000
   72       -4.446476   1.000000
   73       -4.356275   1.000000
   74       -4.203189   1.000000
   75       -4.111349   1.000000
   76       -4.014574   0.999998
   77       -3.967283   0.999990
   78       -3.849114   0.999694
   79       -3.547640   0.902236
   80       -3.359702   0.486228
   81       -3.155346   0.069498
   82       -2.752064   0.000007
   83       -2.652676   0.000000
   84       -2.587282   0.000000
   85       -2.480651   0.000000
   86       -2.371539   0.000000
   87       -2.241364   0.000000
   88       -2.097878   0.000000
   89       -2.026928   0.000000
   90       -1.940150   0.000000
   91       -1.763497   0.000000
   92       -1.493030   0.000000
   93       -1.361768   0.000000
   94       -1.276675   0.000000
   95       -1.151821   0.000000
   96       -1.082735   0.000000
   97       -1.031009   0.000000
   98       -0.964601   0.000000
   99       -0.861881   0.000000
  100       -0.828396   0.000000
  101       -0.789066   0.000000
  102       -0.743869   0.000000
  103       -0.608263   0.000000
  104       -0.459165   0.000000
  105       -0.351817   0.000000
  106       -0.258040   0.000000
  107       -0.169389   0.000000
  108       -0.018501   0.000000
  109        0.117878   0.000000
  110        0.240731   0.000000
  111        0.364518   0.000000
  112        0.514186   0.000000
  113        0.703828   0.000000
  114        0.945057   0.000000
  115        1.061921   0.000000
  116        1.140237   0.000000
  117        1.221828   0.000000
  118        1.763727   0.000000
  119        1.946502   0.000000
  120        2.249497   0.000000
 
  0.2500000E+00  0.1250000E+00  0.0000000E+00  0.3125000E-01
    1      -17.638338   1.000000
    2      -17.094529   1.000000
    3      -16.889052   1.000000
    4      -16.673846   1.000000
    5      -16.474680   1.000000
    6      -16.361268   1.000000
    7      -16.312839   1.000000
    8      -16.265625   1.000000
    9      -16.176745   1.000000
   10      -16.016504   1.000000
   11      -16.002055   1.000000
   12      -15.877203   1.000000
   13      -15.775313   1.000000
   14      -15.710731   1.000000
   15      -15.605171   1.000000
   16      -15.513900   1.000000
   17      -15.448345   1.000000
   18      -15.230677   1.000000
   19       -9.598097   1.000000
   20       -9.381436   1.000000
   21       -9.187784   1.000000
   22       -9.012550   1.000000
   23       -8.880244   1.000000
   24       -8.719741   1.000000
   25       -8.601997   1.000000
   26       -8.477048   1.000000
   27       -8.444801   1.000000
   28       -8.387960   1.000000
   29       -8.279974   1.000000
   30       -8.199134   1.000000
   31       -8.148764   1.000000
   32       -8.062401   1.000000
   33       -7.981929   1.000000
   34       -7.883711   1.000000
   35       -7.779577   1.000000
   36       -7.643520   1.000000
   37       -7.521878   1.000000
   38       -7.435620   1.000000
   39       -7.378365   1.000000
   40       -7.299859   1.000000
   41       -7.247339   1.000000
   42       -7.161638   1.000000
   43       -7.095384   1.000000
   44       -7.022982   1.000000
   45       -6.931588   1.000000
   46       -6.871674   1.000000
   47       -6.719739   1.000000