unknown system                          
           1
     8.855483    5.106526    0.000000
    -8.854336    5.104553    0.000000
     0.000000    0.000000   30.000000
   V    Mo   W    S 
   3   3   3  18
Direct configuration=     1
   0.00000000  0.66666669  0.00000000
   0.66666669  0.00000000  0.00000000
   0.00000000  0.00000000  0.00000000
   0.66666669  0.66666669  0.00000000
   0.66666669  0.33333334  0.00000000
   0.33333334  0.00000000  0.00000000
   1.00000000  0.33333334  0.00000000
   0.33333334  0.33333334  0.00000000
   0.33333334  0.66666669  0.00000000
   0.11068511  0.22244981  0.95539999
   0.22244981  0.11068511  0.04460000
   0.11068511  0.55578315  0.95539999
   0.22244981  0.44401845  0.04460000
   0.11068511  0.88911647  0.95539999
   0.22244981  0.77735180  0.04460000
   0.44401845  0.22244981  0.95539999
   0.55578315  0.11068511  0.04460000
   0.44401845  0.55578315  0.95539999
   0.55578315  0.44401845  0.04460000
   0.44401845  0.88911647  0.95539999
   0.55578315  0.77735180  0.04460000
   0.77735180  0.22244981  0.95539999
   0.88911647  0.11068511  0.04460000
   0.77735180  0.55578315  0.95539999
   0.88911647  0.44401845  0.04460000
   0.77735180  0.88911647  0.95539999
   0.88911647  0.77735180  0.04460000
unknown system                          
           1
     8.667345    5.000204    0.000000
    -8.666310    4.998424    0.000000
     0.000000    0.000000   30.000000
   V    Mo   W    S 
   3   3   3  18
Direct configuration=     2
  -0.00116302  0.66706401 -0.00015390
   0.66591975  0.00001501  0.00012948
  -0.00038156 -0.00158737 -0.00006406
   0.66695916  0.66556298 -0.00010984
   0.66528040  0.33337500  0.00018545
   0.33455050  0.00129271  0.00003100
   0.99808370  0.33298756  0.00006418
   0.33633985  0.33297683  0.00001944
   0.33483874  0.66847622 -0.00012017
   0.10932396  0.21854261  0.95198239
   0.21809861  0.10982916  0.04805510
   0.10900474  0.55754377  0.95193343
   0.22206554  0.44426844  0.04920603
   0.10649306  0.88669400  0.95310347
   0.21804479  0.77503787  0.04800921
   0.44376739  0.22252782  0.95067604
   0.55795972  0.10859877  0.04802507
   0.44331373  0.55494147  0.95072150
   0.55446898  0.44378893  0.04935025
   0.44826374  0.88993630  0.95191384
   0.55681771  0.78183577  0.04809517
   0.77646912  0.21808653  0.95197055
   0.88716417  0.10750389  0.04690922
   0.78229025  0.55780553  0.95192993
   0.89139262  0.44828799  0.04805889
   0.77965074  0.89316322  0.95316502
   0.89319806  0.77965941  0.04691322
unknown system                          
           1
     8.485697    4.900491    0.000000
    -8.484763    4.898885    0.000000
     0.000000    0.000000   30.000000
   V    Mo   W    S 
   3   3   3  18
Direct configuration=     3
  -0.00144953  0.66706148 -0.00017736
   0.66565139 -0.00001063  0.00014337
  -0.00046875 -0.00195249 -0.00012252
   0.66643306  0.66467549 -0.00016166
   0.66447880  0.33337784  0.00020477
   0.33513816  0.00196120  0.00008076
   0.99769564  0.33307833  0.00006381
   0.33759540  0.33309849  0.00002226
   0.33521975  0.66880769 -0.00007842
   0.10937979  0.21872072  0.95212919
   0.21809433  0.10998307  0.04804002
   0.10907037  0.55748078  0.95197879
   0.22209230  0.44423964  0.04906003
   0.10640933  0.88662862  0.95312995
   0.21805207  0.77484558  0.04792492
   0.44366561  0.22266646  0.95054163
   0.55803384  0.10854996  0.04810226
   0.44303048  0.55480506  0.95070161
   0.55426370  0.44366261  0.04951234
   0.44829167  0.88979490  0.95187974
   0.55669792  0.78186073  0.04808037
   0.77663546  0.21809923  0.95200312
   0.88719224  0.10766008  0.04685126
   0.78244625  0.55789069  0.95187876
   0.89157552  0.44827476  0.04804905
   0.77972155  0.89322990  0.95325107
   0.89326813  0.77972425  0.04691080
unknown system                          
           1
     8.281487    4.786234    0.000000
    -8.276197    4.777083    0.000000
     0.000000    0.000000   30.000000
   V    Mo   W    S 
   3   3   3  18
Direct configuration=     4
  -0.00221196  0.66658110 -0.00020057
   0.66432297 -0.00015665  0.00013236
  -0.00058744 -0.00286299 -0.00030806
   0.66345834  0.66057413 -0.00028403
   0.66100996  0.33331476  0.00019115
   0.33770583  0.00470956  0.00023006
   0.99665520  0.33384970  0.00002416
   0.34259398  0.33399305  0.00002431
   0.33636460  0.66956951  0.00011442
   0.10909101  0.21808224  0.95127237
   0.21695055  0.10942664  0.04943137
   0.10871100  0.55813061  0.95066085
   0.22227972  0.44407692  0.05006246
   0.10561585  0.88609848  0.95193802
   0.21695765  0.77428712  0.04902494
   0.44381030  0.22269816  0.94837146
   0.55880770  0.10810738  0.04984994
   0.44260034  0.55459133  0.94897852
   0.55444491  0.44368859  0.05182861
   0.44958692  0.89056420  0.95028114
   0.55757380  0.78307960  0.04947797
   0.77590810  0.21704797  0.95068423
   0.88649325  0.10657947  0.04799015
   0.78370954  0.55837338  0.95024949
   0.89201098  0.44942450  0.04948330
   0.78022084  0.89414465  0.95229648
   0.89413050  0.78024105  0.04819482
unknown system                          
           1
     8.284601    4.794383    0.000000
    -8.273880    4.775823    0.000000
     0.000000    0.000000   30.000000
   V    Mo   W    S 
   3   3   3  18
Direct configuration=     5
  -0.00327808  0.66521144 -0.00007789
   0.66199693 -0.00043395 -0.00000902
  -0.00094110 -0.00434610 -0.00051616
   0.65733426  0.65230186 -0.00033755
   0.65432272  0.33349672  0.00007993
   0.34251638  0.01011025  0.00039217
   0.99388152  0.33512300 -0.00005494
   0.35247244  0.33587700  0.00003587
   0.33861328  0.67095721  0.00039943
   0.10980483  0.21788432  0.95049036
   0.21637597  0.10922132  0.05117601
   0.10856569  0.55944265  0.94890186
   0.22288940  0.44345045  0.05103517
   0.10569341  0.88589289  0.95028997
   0.21617945  0.77473109  0.05031766
   0.44436162  0.22250684  0.94522335
   0.55984617  0.10842144  0.05239193
   0.44218983  0.55399731  0.94656817
   0.55520964  0.44382959  0.05533792
   0.45098014  0.89172973  0.94822302
   0.55918574  0.78420993  0.05132071
   0.77457503  0.21635093  0.94904647
   0.88565081  0.10534304  0.04951964
   0.78420828  0.55828425  0.94799810
   0.89138806  0.45049953  0.05134811
   0.78005162  0.89387451  0.95108828
   0.89414041  0.78024722  0.04981132
unknown system                          
           1
     8.277436    4.791072    0.000000
    -8.267163    4.773283    0.000000
     0.000000    0.000000   30.000000
   V    Mo   W    S 
   3   3   3  18
Direct configuration=     6
  -0.00349678  0.66461483 -0.00008827
   0.66143935 -0.00039393  0.00005480
  -0.00126954 -0.00504389 -0.00056823
   0.65630339  0.65111410 -0.00025663
   0.65431437  0.33368597  0.00014713
   0.34356941  0.01103065  0.00036119
   0.99196909  0.33514192 -0.00006029
   0.35369450  0.33609377 -0.00003509
   0.33970329  0.67161195  0.00038627
   0.11109987  0.21892331  0.95088583
   0.21731102  0.11000738  0.05117350
   0.10887100  0.55988304  0.94891122
   0.22324935  0.44283995  0.05067933
   0.10641340  0.88607547  0.95033203
   0.21690432  0.77571130  0.05021587
   0.44447651  0.22238904  0.94479103
   0.56005161  0.10917376  0.05256390
   0.44182478  0.55342003  0.94636532
   0.55556077  0.44377038  0.05587417
   0.45089116  0.89185266  0.94813083
   0.55952212  0.78389376  0.05135858
   0.77407531  0.21683795  0.94897248
   0.88552982  0.10545316  0.04948451
   0.78321813  0.55774282  0.94789670
   0.89046851  0.45022745  0.05144949
   0.77913117  0.89246558  0.95118205
   0.89338851  0.77969204  0.04979217
unknown system                          
           1
     8.282095    4.794648    0.000000
    -8.271262    4.775889    0.000000
     0.000000    0.000000   30.000000
   V    Mo   W    S 
   3   3   3  18
Direct configuration=     7
  -0.00397358  0.66395636 -0.00012756
   0.66086840 -0.00024074  0.00011238
  -0.00159248 -0.00597526 -0.00064084
   0.65489203  0.64949627 -0.00019746
   0.65397502  0.33381174  0.00014361
   0.34482353  0.01231192  0.00033639
   0.98946124  0.33501484 -0.00008740
   0.35595006  0.33640091 -0.00003419
   0.34112731  0.67246839  0.00040364
   0.11193218  0.21974896  0.95128302
   0.21791825  0.11049934  0.05116412
   0.10908263  0.56022951  0.94893816
   0.22330268  0.44235558  0.05027668
   0.10693722  0.88614479  0.95038251
   0.21741465  0.77636131  0.05009333
   0.44477412  0.22243785  0.94446628
   0.56022403  0.10960385  0.05277191
   0.44156765  0.55307923  0.94617035
   0.55564989  0.44358894  0.05627097
   0.45102216  0.89200887  0.94799092
   0.55980729  0.78379158  0.05144794
   0.77367694  0.21702593  0.94881186
   0.88535339  0.10550277  0.04945664
   0.78263227  0.55746856  0.94779585
   0.88995041  0.45027514  0.05167381
   0.77849365  0.89151821  0.95129872
   0.89294347  0.77932960  0.04979827
unknown system                          
           1
     8.283946    4.797058    0.000000
    -8.272192    4.776701    0.000000
     0.000000    0.000000   30.000000
   V    Mo   W    S 
   3   3   3  18
Direct configuration=     8
  -0.00419637  0.66375540 -0.00013609
   0.66077095 -0.00013858  0.00013656
  -0.00169865 -0.00632923 -0.00066958
   0.65464868  0.64928117 -0.00017901
   0.65419424  0.33384773  0.00015821
   0.34510593  0.01257247  0.00033427
   0.98849165  0.33484324 -0.00009183
   0.35634124  0.33640111 -0.00005089
   0.34166901  0.67282729  0.00040604
   0.11210713  0.22000306  0.95145591
   0.21808047  0.11062840  0.05111567
   0.10912525  0.56026138  0.94900491
   0.22323784  0.44221819  0.05009114
   0.10707188  0.88614831  0.95043932
   0.21756476  0.77650455  0.05000395
   0.44487176  0.22246991  0.94443544
   0.56025515  0.10969079  0.05277618
   0.44148376  0.55298262  0.94617314
   0.55569747  0.44353614  0.05631385
   0.45105634  0.89203015  0.94798855
   0.55988980  0.78378663  0.05144365
   0.77355076  0.21701022  0.94876250
   0.88531765  0.10555168  0.04940825
   0.78249789  0.55743640  0.94781311
   0.88988054  0.45033807  0.05172346
   0.77833495  0.89130112  0.95137713
   0.89286436  0.77925624  0.04976606
unknown system                          
           1
     8.285559    4.799541    0.000000
    -8.272954    4.777708    0.000000
     0.000000    0.000000   30.000000
   V    Mo   W    S 
   3   3   3  18
Direct configuration=     9
  -0.00433121  0.66351054 -0.00013545
   0.66058923 -0.00009221  0.00015845
  -0.00182896 -0.00666581 -0.00069819
   0.65420205  0.64874868 -0.00016047
   0.65414695  0.33393484  0.00017399
   0.34552735  0.01298256  0.00033394
   0.98769278  0.33488142 -0.00009804
   0.35699635  0.33650806 -0.00007577
   0.34208322  0.67307305  0.00041710
   0.11238867  0.22027125  0.95156793
   0.21825968  0.11078639  0.05115298
   0.10917400  0.56039740  0.94897478
   0.22326899  0.44204677  0.04999086
   0.10721241  0.88614181  0.95042477
   0.21769582  0.77670727  0.04998519
   0.44495509  0.22247517  0.94426202
   0.56034239  0.10984370  0.05288240
   0.44137684  0.55283759  0.94606871
   0.55579532  0.44350489  0.05651920
   0.45111152  0.89208745  0.94790346
   0.56001455  0.78376974  0.05150568
   0.77339364  0.21705459  0.94867568
   0.88525415  0.10555226  0.04942653
   0.78232698  0.55735461  0.94774085
   0.88972364  0.45039552  0.05181969
   0.77811075  0.89097452  0.95139223
   0.89273224  0.77913239  0.04979137
unknown system                          
           1
     8.279259    4.794902    0.000000
    -8.267407    4.774375    0.000000
     0.000000    0.000000   30.000000
   V    Mo   W    S 
   3   3   3  18
Direct configuration=    10
  -0.00506978  0.66296267 -0.00016551
   0.66031014  0.00021233  0.00021020
  -0.00206433 -0.00766850 -0.00078033
   0.65349920  0.64807661 -0.00011642
   0.65457510  0.33400301  0.00019189
   0.34631119  0.01376498  0.00033171
   0.98503388  0.33433308 -0.00011509
   0.35823903  0.33650412 -0.00009262
   0.34365800  0.67414600  0.00042565
   0.11273952  0.22085992  0.95201034
   0.21862300  0.11106847  0.05104107
   0.10925244  0.56043624  0.94914353
   0.22304188  0.44170969  0.04950315
   0.10754593  0.88614963  0.95054263
   0.21803629  0.77702768  0.04977133
   0.44525041  0.22256375  0.94416552
   0.56040071  0.11000507  0.05293466
   0.44118993  0.55263099  0.94605092
   0.55587990  0.44335547  0.05664069
   0.45124398  0.89217210  0.94786923
   0.56025940  0.78382029  0.05153233
   0.77303907  0.21692332  0.94849926
   0.88515859  0.10566205  0.04932877
   0.78206261  0.55732025  0.94774923
   0.88960266  0.45061898  0.05200420
   0.77779447  0.89054603  0.95157148
   0.89260123  0.77901024  0.04975206
unknown system                          
           1
     8.290739    4.803643    0.000000
    -8.277410    4.780556    0.000000
     0.000000    0.000000   30.000000
   V    Mo   W    S 
   3   3   3  18
Direct configuration=    11
  -0.00430110  0.66337630 -0.00014851
   0.66047490 -0.00007917  0.00018114
  -0.00192409 -0.00700217 -0.00072336
   0.65382350  0.64833417 -0.00015133
   0.65412015  0.33398593  0.00016942
   0.34575224  0.01328599  0.00033152
   0.98699832  0.33499961 -0.00011593
   0.35759127  0.33655657 -0.00007617
   0.34230037  0.67318532  0.00042699
   0.11262905  0.22053913  0.95173190
   0.21847968  0.11095766  0.05109523
   0.10922025  0.56050165  0.94900274
   0.22328375  0.44189903  0.04984251
   0.10732928  0.88616127  0.95049066
   0.21786186  0.77689625  0.04991367
   0.44503071  0.22250881  0.94423325
   0.56035753  0.10996342  0.05289736
   0.44129329  0.55273789  0.94606599
   0.55578570  0.44342381  0.05657574
   0.45111892  0.89208671  0.94791380
   0.56000045  0.78366841  0.05148258
   0.77338086  0.21717377  0.94867589
   0.88524203  0.10563069  0.04937057
   0.78216091  0.55728073  0.94776374
   0.88964137  0.45043120  0.05184855
   0.77792968  0.89067723  0.95146470
   0.89263359  0.77903422  0.04973722
unknown system                          
           1
     8.290692    4.803994    0.000000
    -8.277147    4.780532    0.000000
     0.000000    0.000000   30.000000
   V    Mo   W    S 
   3   3   3  18
Direct configuration=    12
  -0.00569584  0.66249229 -0.00018218
   0.66011843  0.00047931  0.00025215
  -0.00230871 -0.00852391 -0.00084411
   0.65294912  0.64750604 -0.00007269
   0.65493205  0.33409710  0.00021656
   0.34699861  0.01444364  0.00032707
   0.98296856  0.33391831 -0.00012649
   0.35920661  0.33655010 -0.00011622
   0.34491047  0.67497157  0.00042513
   0.11300985  0.22131772  0.95234855
   0.21885983  0.11127787  0.05099523
   0.10930824  0.56047898  0.94923635
   0.22283739  0.44141059  0.04914547
   0.10779641  0.88613784  0.95059433
   0.21827049  0.77727718  0.04963597
   0.44550196  0.22262194  0.94402493
   0.56048148  0.11013883  0.05301503
   0.44103026  0.55244860  0.94599106
   0.55599881  0.44326207  0.05679575
   0.45136716  0.89225262  0.94780535
   0.56050720  0.78388715  0.05159068
   0.77269155  0.21677627  0.94831912
   0.88508483  0.10573192  0.04927677
   0.78186416  0.55729976  0.94771465
   0.88948773  0.45083534  0.05218854
   0.77754140  0.89020366  0.95168887
   0.89249640  0.77892166  0.04975401
unknown system                          
           1
     8.284137    4.800020    0.000000
    -8.269989    4.775519    0.000000
     0.000000    0.000000   30.000000
   V    Mo   W    S 
   3   3   3  18
Direct configuration=    13
  -0.00591786  0.66234353 -0.00018599
   0.66007291  0.00056876  0.00026224
  -0.00239053 -0.00879418 -0.00086415
   0.65282826  0.64736444 -0.00005954
   0.65503414  0.33412741  0.00022212
   0.34719100  0.01463775  0.00032679
   0.98243960  0.33380223 -0.00012847
   0.35945186  0.33656424 -0.00012316
   0.34527143  0.67520510  0.00042466
   0.11306099  0.22143346  0.95244897
   0.21892503  0.11133519  0.05097627
   0.10931484  0.56047338  0.94927091
   0.22276912  0.44133956  0.04904019
   0.10786245  0.88613114  0.95061080
   0.21833781  0.77733753  0.04958973
   0.44557610  0.22264449  0.94399517
   0.56050295  0.11017564  0.05303335
   0.44099370  0.55240364  0.94598025
   0.55603066  0.44323744  0.05682936
   0.45139873  0.89227171  0.94779077
   0.56057907  0.78390630  0.05160540
   0.77258437  0.21672752  0.94827147
   0.88507314  0.10576225  0.04925939
   0.78181072  0.55729823  0.94770880
   0.88946078  0.45089759  0.05223468
   0.77748054  0.89011781  0.95172399
   0.89247264  0.77890225  0.04975591
unknown system                          
           1
     8.291688    4.806837    0.000000
    -8.277108    4.781577    0.000000
     0.000000    0.000000   30.000000
   V    Mo   W    S 
   3   3   3  18
Direct configuration=    14
  -0.00589206  0.66233849 -0.00019983
   0.65987128  0.00057987  0.00026643
  -0.00222493 -0.00864885 -0.00086953
   0.65287851  0.64738210 -0.00007620
   0.65504248  0.33399098  0.00021631
   0.34728481  0.01461573  0.00033365
   0.98197450  0.33363676 -0.00012237
   0.35948700  0.33634033 -0.00012322
   0.34537741  0.67552344  0.00044425
   0.11308574  0.22149136  0.95242386
   0.21895812  0.11133598  0.05097638
   0.10929122  0.56043099  0.94932503
   0.22280441  0.44140182  0.04899447
   0.10785904  0.88609406  0.95063499
   0.21831028  0.77729345  0.04956812
   0.44558128  0.22267019  0.94403611
   0.56049881  0.11010838  0.05299620
   0.44097525  0.55240163  0.94603216
   0.55601107  0.44325699  0.05678584
   0.45144204  0.89227584  0.94781322
   0.56056628  0.78394826  0.05156805
   0.77264627  0.21669147  0.94827941
   0.88500516  0.10573464  0.04924284
   0.78188622  0.55734705  0.94776278
   0.88954445  0.45092716  0.05220751
   0.77747796  0.89019434  0.95175391
   0.89247185  0.77885198  0.04972950
unknown system                          
           1
     8.297489    4.812012    0.000000
    -8.281689    4.784639    0.000000
     0.000000    0.000000   30.000000
   V    Mo   W    S 
   3   3   3  18
Direct configuration=    15
  -0.00744657  0.66142768 -0.00021110
   0.65976563  0.00111609  0.00031267
  -0.00265422 -0.01012832 -0.00097758
   0.65228681  0.64676546  0.00000410
   0.65582148  0.33433660  0.00024952
   0.34815031  0.01550758  0.00032810
   0.97921383  0.33285032 -0.00012685
   0.36066502  0.33654268 -0.00014712
   0.34759577  0.67684144  0.00042943
   0.11325660  0.22201606  0.95295840
   0.21926052  0.11157924  0.05087909
   0.10933360  0.56036834  0.94953697
   0.22235940  0.44102852  0.04842916
   0.10824882  0.88606190  0.95070785
   0.21864640  0.77756962  0.04930700
   0.44596760  0.22275230  0.94387234
   0.56057340  0.11030409  0.05312863
   0.44083557  0.55221689  0.94594858
   0.55617823  0.44310573  0.05695634
   0.45158094  0.89240828  0.94769133
   0.56103225  0.78411774  0.05170322
   0.77197419  0.21635312  0.94796503
   0.88495708  0.10587283  0.04919572
   0.78161585  0.55735488  0.94767845
   0.88937996  0.45124384  0.05249184
   0.77720899  0.88979026  0.95189923
   0.89240702  0.77881129  0.04978954
unknown system                          
           1
     8.297637    4.812058    0.000000
    -8.281851    4.784710    0.000000
     0.000000    0.000000   30.000000
   V    Mo   W    S 
   3   3   3  18
Direct configuration=    16
  -0.00958467  0.66027143 -0.00022259
   0.65943361  0.00180656  0.00035019
  -0.00295285 -0.01156649 -0.00110069
   0.65207041  0.64635354  0.00009111
   0.65673623  0.33453997  0.00027177
   0.34920701  0.01639130  0.00032366
   0.97610987  0.33173294 -0.00011427
   0.36166945  0.33648351 -0.00017945
   0.35019082  0.67867404  0.00041011
   0.11332483  0.22248613  0.95346217
   0.21956478  0.11179904  0.05079075
   0.10933763  0.56020299  0.94985217
   0.22189269  0.44081058  0.04780345
   0.10863033  0.88590957  0.95079316
   0.21890957  0.77773370  0.04898943
   0.44637241  0.22285886  0.94374920
   0.56066676  0.11045161  0.05323824
   0.44071817  0.55206757  0.94589918
   0.55634486  0.44300644  0.05709219
   0.45178981  0.89258246  0.94755288
   0.56164655  0.78444705  0.05185270
   0.77121635  0.21587371  0.94762754
   0.88483630  0.10595388  0.04915195
   0.78145095  0.55744376  0.94760095
   0.88927188  0.45162910  0.05277391
   0.77698519  0.88953291  0.95206787
   0.89237551  0.77873829  0.04987233
unknown system                          
           1
     8.286325    4.807985    0.000000
    -8.270092    4.779853    0.000000
     0.000000    0.000000   30.000000
   V    Mo   W    S 
   3   3   3  18
Direct configuration=    17
  -0.00953979  0.66029784 -0.00022253
   0.65943478  0.00179133  0.00034918
  -0.00293804 -0.01152345 -0.00109810
   0.65208541  0.64636943  0.00008871
   0.65671702  0.33453219  0.00027143
   0.34918090  0.01636332  0.00032337
   0.97618371  0.33175293 -0.00011323
   0.36163610  0.33647574 -0.00017800
   0.35013011  0.67864244  0.00041065
   0.11332108  0.22247381  0.95344747
   0.21955703  0.11179197  0.05079459
   0.10933733  0.56020546  0.94984536
   0.22190408  0.44081826  0.04781789
   0.10862097  0.88591136  0.95079065
   0.21890035  0.77772786  0.04899809
   0.44636301  0.22285505  0.94375112
   0.56066585  0.11044698  0.05323705
   0.44072094  0.55207203  0.94590114
   0.55634115  0.44300941  0.05708868
   0.45178669  0.89258049  0.94755389
   0.56163593  0.78444340  0.05185010
   0.77123129  0.21588110  0.94763348
   0.88483690  0.10594898  0.04915389
   0.78145806  0.55744285  0.94760218
   0.88927423  0.45162065  0.05276788
   0.77699205  0.88954343  0.95206379
   0.89237735  0.77873957  0.04987114
unknown system                          
           1
     8.299799    4.814962    0.000000
    -8.283199    4.786201    0.000000
     0.000000    0.000000   30.000000
   V    Mo   W    S 
   3   3   3  18
Direct configuration=    18
  -0.01329073  0.65841270 -0.00021236
   0.65913635  0.00301859  0.00040507
  -0.00334319 -0.01385667 -0.00129335
   0.65222066  0.64598522  0.00023100
   0.65803519  0.33488945  0.00031371
   0.35041374  0.01764613  0.00031187
   0.97277096  0.33065343 -0.00006369
   0.36282965  0.33644354 -0.00020377
   0.35348805  0.68071893  0.00036363
   0.11326353  0.22278227  0.95399741
   0.21988804  0.11208430  0.05069216
   0.10939405  0.55997854  0.95024424
   0.22145525  0.44081020  0.04709209
   0.10900730  0.88569793  0.95087140
   0.21916325  0.77776944  0.04858240
   0.44673698  0.22296317  0.94361938
   0.56074897  0.11070920  0.05339083
   0.44062138  0.55198423  0.94587156
   0.55644418  0.44293500  0.05721245
   0.45189470  0.89273998  0.94735299
   0.56229898  0.78474051  0.05206149
   0.77031319  0.21539319  0.94721127
   0.88492975  0.10609703  0.04914902
   0.78131505  0.55752113  0.94745733
   0.88916316  0.45205433  0.05308737
   0.77690892  0.88933950  0.95220611
   0.89240708  0.77870317  0.05004831
unknown system                          
           1
     8.302569    4.818254    0.000000
    -8.285339    4.788396    0.000000
     0.000000    0.000000   30.000000
   V    Mo   W    S 
   3   3   3  18
Direct configuration=    19
  -0.01194322  0.65909847 -0.00022467
   0.65909123  0.00246501  0.00037430
  -0.00322678 -0.01277981 -0.00122152
   0.65210594  0.64608791  0.00017326
   0.65751337  0.33471861  0.00029345
   0.35019303  0.01713873  0.00031697
   0.97359917  0.33063711 -0.00007665
   0.36247631  0.33643401 -0.00019332
   0.35263636  0.68042195  0.00038530
   0.11327348  0.22279133  0.95389230
   0.21984895  0.11197096  0.05069174
   0.10934367  0.56001462  0.95019772
   0.22147868  0.44073750  0.04722686
   0.10895299  0.88572467  0.95089093
   0.21911582  0.77779545  0.04865824
   0.44671285  0.22295744  0.94367113
   0.56077055  0.11061024  0.05332715
   0.44068968  0.55199515  0.94588548
   0.55646401  0.44290637  0.05716383
   0.45198591  0.89276481  0.94741557
   0.56227299  0.78481202  0.05198826
   0.77049220  0.21541126  0.94734476
   0.88471181  0.10601057  0.04911165
   0.78129597  0.55751378  0.94751688
   0.88914839  0.45190589  0.05299352
   0.77683362  0.88938115  0.95223082
   0.89237748  0.77868925  0.04996595
unknown system                          
           1
     8.301973    4.817640    0.000000
    -8.284886    4.788031    0.000000
     0.000000    0.000000   30.000000
   V    Mo   W    S 
   3   3   3  18
Direct configuration=    20
  -0.01473834  0.65786906 -0.00021180
   0.65882284  0.00320385  0.00038761
  -0.00353887 -0.01398057 -0.00135141
   0.65243417  0.64593333  0.00026837
   0.65824712  0.33490074  0.00030653
   0.35114282  0.01786260  0.00029810
   0.97131042  0.32947570 -0.00002310
   0.36318422  0.33638427 -0.00021288
   0.35512897  0.68218005  0.00032836
   0.11313604  0.22295576  0.95429292
   0.22011179  0.11210909  0.05058654
   0.10938081  0.55982380  0.95059875
   0.22108633  0.44078311  0.04665286
   0.10922467  0.88547844  0.95100796
   0.21924665  0.77775377  0.04829136
   0.44701892  0.22304917  0.94359778
   0.56090984  0.11083305  0.05343477
   0.44072675  0.55197546  0.94587665
   0.55659066  0.44282044  0.05723761
   0.45216730  0.89297198  0.94724004
   0.56300606  0.78523014  0.05215571
   0.76974709  0.21495508  0.94707547
   0.88459945  0.10601604  0.04909628
   0.78110670  0.55752842  0.94739188
   0.88898517  0.45211863  0.05319888
   0.77675377  0.88929524  0.95238989
   0.89242311  0.77868782  0.05008478
unknown system                          
           1
     8.304064    4.818202    0.000000
    -8.283542    4.782675    0.000000
     0.000000    0.000000   30.000000
   V    Mo   W    S 
   3   3   3  18
Direct configuration=    21
  -0.01406064  0.65816051 -0.00021880
   0.65890389  0.00303268  0.00038461
  -0.00344827 -0.01373830 -0.00132157
   0.65232389  0.64594346  0.00024626
   0.65812117  0.33489093  0.00030389
   0.35090131  0.01771332  0.00030193
   0.97176046  0.32974133 -0.00003798
   0.36304282  0.33637877 -0.00021000
   0.35456110  0.68178061  0.00034475
   0.11316585  0.22293722  0.95421834
   0.22004637  0.11207490  0.05060999
   0.10936124  0.55985038  0.95050148
   0.22115255  0.44074480  0.04677264
   0.10917341  0.88555617  0.95098280
   0.21923741  0.77779007  0.04838083
   0.44696412  0.22302854  0.94361291
   0.56087193  0.11078036  0.05341329
   0.44069763  0.55196949  0.94587653
   0.55656769  0.44283718  0.05722445
   0.45212233  0.89291943  0.94727965
   0.56284072  0.78512879  0.05212105
   0.76990449  0.21505196  0.94712761
   0.88462906  0.10602213  0.04909337
   0.78115494  0.55754012  0.94742856
   0.88902876  0.45208179  0.05315652
   0.77677770  0.88930240  0.95236015
   0.89241252  0.77869541  0.05004665
unknown system                          
           1
     8.307627    4.818434    0.000000
    -8.286205    4.781372    0.000000
     0.000000    0.000000   30.000000
   V    Mo   W    S 
   3   3   3  18
Direct configuration=    22
  -0.00799579  0.66019489 -0.00036115
   0.65872945  0.00135429  0.00036717
  -0.00194855 -0.01168520 -0.00095700
   0.65111402  0.64577529  0.00009061
   0.65703166  0.33455587  0.00029729
   0.34944752  0.01700134  0.00035883
   0.97473302  0.33233291 -0.00023832
   0.36189748  0.33543069 -0.00019139
   0.34967171  0.67891527  0.00057213
   0.11348326  0.22339475  0.95373413
   0.21963102  0.11178467  0.05090044
   0.10884275  0.55983222  0.94961110
   0.22132102  0.44012271  0.04757694
   0.10929098  0.88623972  0.95068286
   0.21948911  0.77866083  0.04917369
   0.44683424  0.22278677  0.94373424
   0.56027810  0.11017034  0.05315268
   0.44008654  0.55175673  0.94592487
   0.55654515  0.44306211  0.05715729
   0.45161086  0.89239935  0.94766855
   0.56140855  0.78420166  0.05184380
   0.77099184  0.21571322  0.94742485
   0.88485563  0.10615467  0.04900389
   0.78202693  0.55806989  0.94786934
   0.88982963  0.45239522  0.05279415
   0.77679628  0.88904797  0.95216676
   0.89221207  0.77854626  0.04964216
unknown system                          
           1
     8.310150    4.820280    0.000000
    -8.287659    4.781376    0.000000
     0.000000    0.000000   30.000000
   V    Mo   W    S 
   3   3   3  18
Direct configuration=    23
  -0.00141892  0.66162240 -0.00054248
   0.65814150 -0.00019863  0.00032038
   0.00046229 -0.01049127 -0.00074149
   0.64901098  0.64515068 -0.00009697
   0.65665160  0.33451013  0.00029560
   0.34810957  0.01656554  0.00033715
   0.97601682  0.33467640 -0.00046418
   0.36111522  0.33392175 -0.00011461
   0.34515545  0.67716791  0.00085234
   0.11364281  0.22430917  0.95369501
   0.21955182  0.11162837  0.05131903
   0.10830622  0.55968230  0.94874087
   0.22080220  0.43909075  0.04776538
   0.11002890  0.88712769  0.95038463
   0.22013442  0.77997737  0.04991559
   0.44743156  0.22272349  0.94369085
   0.55987822  0.10974443  0.05303746
   0.43904745  0.55121450  0.94618039
   0.55652230  0.44303915  0.05713423
   0.45097036  0.89179319  0.94798804
   0.56020258  0.78336531  0.05165893
   0.77116785  0.21580326  0.94744991
   0.88489377  0.10655333  0.04870430
   0.78297176  0.55898673  0.94840639
   0.89062258  0.45345148  0.05265377
   0.77685696  0.88863471  0.95227349
   0.89193818  0.77816434  0.04915589
unknown system                          
           1
     8.312284    4.819339    0.000000
    -8.293449    4.786758    0.000000
     0.000000    0.000000   30.000000
   V    Mo   W    S 
   3   3   3  18
Direct configuration=    24
   0.00156324  0.66174049 -0.00049980
   0.65766511 -0.00015128  0.00031955
   0.00207785 -0.01100593 -0.00071225
   0.64764857  0.64463606 -0.00003831
   0.65670651  0.33430106  0.00028325
   0.34791954  0.01667044  0.00029553
   0.97472522  0.33483223 -0.00049593
   0.36120024  0.33269090 -0.00011156
   0.34419620  0.67802286  0.00082050
   0.11336368  0.22461132  0.95400884
   0.21984715  0.11166129  0.05153039
   0.10848753  0.55971103  0.94850481
   0.22006725  0.43858043  0.04729679
   0.11068177  0.88742417  0.95020119
   0.22041740  0.78048247  0.05013583
   0.44808743  0.22302620  0.94359728
   0.56009383  0.10993363  0.05309057
   0.43817985  0.55066432  0.94637992
   0.55653953  0.44294709  0.05715408
   0.45068168  0.89151695  0.94793683