<?xml version="1.0" encoding="ISO-8859-1"?>
<modeling>
 <generator>
  <i name="program" type="string">vasp </i>
  <i name="version" type="string">5.4.1  </i>
  <i name="subversion" type="string">05Feb16 (build Jul 05 2020 17:13:04) complex                          parallel </i>
  <i name="platform" type="string">IFC91_ompi </i>
  <i name="date" type="string">2024 07 31 </i>
  <i name="time" type="string">08:38:02 </i>
 </generator>
 <incar>
  <i type="int" name="ISTART">     0</i>
  <i type="string" name="PREC">normal</i>
  <i type="string" name="ALGO"> Normal</i>
  <i type="int" name="ISPIN">     1</i>
  <i type="int" name="ICHARG">     2</i>
  <i type="int" name="IBRION">     1</i>
  <i type="int" name="NSW">   100</i>
  <i type="int" name="ISIF">     3</i>
  <i type="int" name="ISYM">     0</i>
  <i name="SYMPREC">      0.00000001</i>
  <i name="POTIM">      0.50000000</i>
  <i type="logical" name="LREAL"> F  </i>
  <i type="logical" name="LPLANE"> F  </i>
  <i type="int" name="ISMEAR">     0</i>
  <i type="logical" name="LWAVE"> F  </i>
  <i type="logical" name="LCHARG"> F  </i>
  <v type="int" name="KPOINT_BSE">    -1     0     0     0</v>
 </incar>
 <kpoints>
  <generation param="Gamma">
   <v type="int" name="divisions">       8        8        1 </v>
   <v name="usershift">      0.00000000       0.00000000       0.00000000 </v>
   <v name="genvec1">      0.12500000       0.00000000       0.00000000 </v>
   <v name="genvec2">     -0.00000000       0.12500000       0.00000000 </v>
   <v name="genvec3">      0.00000000       0.00000000       1.00000000 </v>
   <v name="shift">      0.00000000       0.00000000       0.00000000 </v>
  </generation>
  <varray name="kpointlist" >
   <v>       0.00000000       0.00000000       0.00000000 </v>
   <v>       0.12500000       0.00000000       0.00000000 </v>
   <v>       0.25000000       0.00000000       0.00000000 </v>
   <v>       0.37500000       0.00000000       0.00000000 </v>
   <v>       0.50000000       0.00000000       0.00000000 </v>
   <v>       0.00000000       0.12500000       0.00000000 </v>
   <v>       0.12500000       0.12500000       0.00000000 </v>
   <v>       0.25000000       0.12500000       0.00000000 </v>
   <v>       0.37500000       0.12500000       0.00000000 </v>
   <v>       0.50000000       0.12500000       0.00000000 </v>
   <v>      -0.37500000       0.12500000       0.00000000 </v>
   <v>      -0.25000000       0.12500000       0.00000000 </v>
   <v>      -0.12500000       0.12500000       0.00000000 </v>
   <v>       0.00000000       0.25000000       0.00000000 </v>
   <v>       0.12500000       0.25000000       0.00000000 </v>
   <v>       0.25000000       0.25000000       0.00000000 </v>
   <v>       0.37500000       0.25000000       0.00000000 </v>
   <v>       0.50000000       0.25000000       0.00000000 </v>
   <v>      -0.37500000       0.25000000       0.00000000 </v>
   <v>      -0.25000000       0.25000000       0.00000000 </v>
   <v>      -0.12500000       0.25000000       0.00000000 </v>
   <v>      -0.00000000       0.37500000       0.00000000 </v>
   <v>       0.12500000       0.37500000       0.00000000 </v>
   <v>       0.25000000       0.37500000       0.00000000 </v>
   <v>       0.37500000       0.37500000       0.00000000 </v>
   <v>       0.50000000       0.37500000       0.00000000 </v>
   <v>      -0.37500000       0.37500000       0.00000000 </v>
   <v>      -0.25000000       0.37500000       0.00000000 </v>
   <v>      -0.12500000       0.37500000       0.00000000 </v>
   <v>       0.00000000       0.50000000       0.00000000 </v>
   <v>       0.12500000       0.50000000       0.00000000 </v>
   <v>       0.25000000       0.50000000       0.00000000 </v>
   <v>       0.37500000       0.50000000       0.00000000 </v>
   <v>       0.50000000       0.50000000       0.00000000 </v>
  </varray>
  <varray name="weights" >
   <v>       0.01562500 </v>
   <v>       0.03125000 </v>
   <v>       0.03125000 </v>
   <v>       0.03125000 </v>
   <v>       0.01562500 </v>
   <v>       0.03125000 </v>
   <v>       0.03125000 </v>
   <v>       0.03125000 </v>
   <v>       0.03125000 </v>
   <v>       0.03125000 </v>
   <v>       0.03125000 </v>
   <v>       0.03125000 </v>
   <v>       0.03125000 </v>
   <v>       0.03125000 </v>
   <v>       0.03125000 </v>
   <v>       0.03125000 </v>
   <v>       0.03125000 </v>
   <v>       0.03125000 </v>
   <v>       0.03125000 </v>
   <v>       0.03125000 </v>
   <v>       0.03125000 </v>
   <v>       0.03125000 </v>
   <v>       0.03125000 </v>
   <v>       0.03125000 </v>
   <v>       0.03125000 </v>
   <v>       0.03125000 </v>
   <v>       0.03125000 </v>
   <v>       0.03125000 </v>
   <v>       0.03125000 </v>
   <v>       0.01562500 </v>
   <v>       0.03125000 </v>
   <v>       0.03125000 </v>
   <v>       0.03125000 </v>
   <v>       0.01562500 </v>
  </varray>
 </kpoints>
 <parameters>
  <separator name="general" >
   <i type="string" name="SYSTEM">unknown system</i>
   <i type="logical" name="LCOMPAT"> F  </i>
  </separator>
  <separator name="electronic" >
   <i type="string" name="PREC">normal</i>
   <i name="ENMAX">    280.00000000</i>
   <i name="ENAUG">    373.43800000</i>
   <i name="EDIFF">      0.00010000</i>
   <i type="int" name="IALGO">    38</i>
   <i type="int" name="IWAVPR">    11</i>
   <i type="int" name="NBANDS">   120</i>
   <i name="NELECT">    159.00000000</i>
   <i type="int" name="TURBO">     0</i>
   <i type="int" name="IRESTART">     0</i>
   <i type="int" name="NREBOOT">     0</i>
   <i type="int" name="NMIN">     0</i>
   <i name="EREF">      0.00000000</i>
   <separator name="electronic smearing" >
    <i type="int" name="ISMEAR">     0</i>
    <i name="SIGMA">      0.20000000</i>
    <i name="KSPACING">      0.50000000</i>
    <i type="logical" name="KGAMMA"> T  </i>
   </separator>
   <separator name="electronic projectors" >
    <i type="logical" name="LREAL"> F  </i>
    <v name="ROPT">      0.00000000      0.00000000      0.00000000      0.00000000</v>
    <i type="int" name="LMAXPAW">  -100</i>
    <i type="int" name="LMAXMIX">     2</i>
    <i type="logical" name="NLSPLINE"> F  </i>
   </separator>
   <separator name="electronic startup" >
    <i type="int" name="ISTART">     0</i>
    <i type="int" name="ICHARG">     2</i>
    <i type="int" name="INIWAV">     1</i>
   </separator>
   <separator name="electronic spin" >
    <i type="int" name="ISPIN">     1</i>
    <i type="logical" name="LNONCOLLINEAR"> F  </i>
    <v name="MAGMOM">      1.00000000      1.00000000      1.00000000      1.00000000      1.00000000      1.00000000      1.00000000      1.00000000      1.00000000      1.00000000      1.00000000      1.00000000      1.00000000      1.00000000      1.00000000      1.00000000      1.00000000      1.00000000      1.00000000      1.00000000
      1.00000000      1.00000000      1.00000000      1.00000000      1.00000000      1.00000000      1.00000000</v>
    <i name="NUPDOWN">     -1.00000000</i>
    <i type="logical" name="LSORBIT"> F  </i>
    <v name="SAXIS">      0.00000000      0.00000000      1.00000000</v>
    <i type="logical" name="LSPIRAL"> F  </i>
    <v name="QSPIRAL">      0.00000000      0.00000000      0.00000000</v>
    <i type="logical" name="LZEROZ"> F  </i>
   </separator>
   <separator name="electronic exchange-correlation" >
    <i type="logical" name="LASPH"> F  </i>
    <i type="logical" name="LMETAGGA"> F  </i>
   </separator>
   <separator name="electronic convergence" >
    <i type="int" name="NELM">    60</i>
    <i type="int" name="NELMDL">    -5</i>
    <i type="int" name="NELMIN">     2</i>
    <i name="ENINI">    280.00000000</i>
    <separator name="electronic convergence detail" >
     <i type="logical" name="LDIAG"> T  </i>
     <i type="logical" name="LSUBROT"> F  </i>
     <i name="WEIMIN">      0.00100000</i>
     <i name="EBREAK">      0.00000021</i>
     <i name="DEPER">      0.30000000</i>
     <i type="int" name="NRMM">     4</i>
     <i name="TIME">      0.40000000</i>
    </separator>
   </separator>
   <separator name="electronic mixer" >
    <i name="AMIX">      0.40000000</i>
    <i name="BMIX">      1.00000000</i>
    <i name="AMIN">      0.10000000</i>
    <i name="AMIX_MAG">      1.60000000</i>
    <i name="BMIX_MAG">      1.00000000</i>
    <separator name="electronic mixer details" >
     <i type="int" name="IMIX">     4</i>
     <i type="logical" name="MIXFIRST"> F  </i>
     <i type="int" name="MAXMIX">   -45</i>
     <i name="WC">    100.00000000</i>
     <i type="int" name="INIMIX">     1</i>
     <i type="int" name="MIXPRE">     1</i>
     <i type="int" name="MREMOVE">     5</i>
    </separator>
   </separator>
   <separator name="electronic dipolcorrection" >
    <i type="logical" name="LDIPOL"> F  </i>
    <i type="logical" name="LMONO"> F  </i>
    <i type="int" name="IDIPOL">     0</i>
    <i name="EPSILON">      1.00000000</i>
    <v name="DIPOL">   -100.00000000   -100.00000000   -100.00000000</v>
    <i name="EFIELD">      0.00000000</i>
   </separator>
  </separator>
  <separator name="grids" >
   <i type="int" name="NGX">    42</i>
   <i type="int" name="NGY">    42</i>
   <i type="int" name="NGZ">   126</i>
   <i type="int" name="NGXF">    84</i>
   <i type="int" name="NGYF">    84</i>
   <i type="int" name="NGZF">   252</i>
   <i type="logical" name="ADDGRID"> F  </i>
  </separator>
  <separator name="ionic" >
   <i type="int" name="NSW">   100</i>
   <i type="int" name="IBRION">     1</i>
   <i type="int" name="ISIF">     3</i>
   <i name="PSTRESS">      0.00000000</i>
   <i name="EDIFFG">      0.00100000</i>
   <i type="int" name="NFREE">     0</i>
   <i name="POTIM">      0.50000000</i>
   <i name="SMASS">     -3.00000000</i>
   <i name="SCALEE">      1.00000000</i>
  </separator>
  <separator name="ionic md" >
   <i name="TEBEG">      0.00010000</i>
   <i name="TEEND">      0.00010000</i>
   <i type="int" name="NBLOCK">     1</i>
   <i type="int" name="KBLOCK">   100</i>
   <i type="int" name="NPACO">   256</i>
   <i name="APACO">     16.00000000</i>
  </separator>
  <separator name="symmetry" >
   <i type="int" name="ISYM">     0</i>
   <i name="SYMPREC">      0.00000001</i>
  </separator>
  <separator name="dos" >
   <i type="logical" name="LORBIT"> F  </i>
   <v name="RWIGS">     -1.00000000     -1.00000000     -1.00000000     -1.00000000</v>
   <i type="int" name="NEDOS">   301</i>
   <i name="EMIN">     10.00000000</i>
   <i name="EMAX">    -10.00000000</i>
   <i name="EFERMI">      0.00000000</i>
  </separator>
  <separator name="writing" >
   <i type="int" name="NWRITE">     2</i>
   <i type="logical" name="LWAVE"> F  </i>
   <i type="logical" name="LCHARG"> F  </i>
   <i type="logical" name="LPARD"> F  </i>
   <i type="logical" name="LVTOT"> F  </i>
   <i type="logical" name="LVHAR"> F  </i>
   <i type="logical" name="LELF"> F  </i>
   <i type="logical" name="LOPTICS"> F  </i>
   <v name="STM">      0.00000000      0.00000000      0.00000000      0.00000000      0.00000000      0.00000000      0.00000000</v>
  </separator>
  <separator name="performance" >
   <i type="int" name="NPAR">    40</i>
   <i type="int" name="NSIM">     4</i>
   <i type="int" name="NBLK">    -1</i>
   <i type="logical" name="LPLANE"> F  </i>
   <i type="logical" name="LSCALAPACK"> T  </i>
   <i type="logical" name="LSCAAWARE"> F  </i>
   <i type="logical" name="LSCALU"> F  </i>
   <i type="logical" name="LASYNC"> F  </i>
   <i type="logical" name="LORBITALREAL"> F  </i>
  </separator>
  <separator name="miscellaneous" >
   <i type="int" name="IDIOT">     3</i>
   <i type="logical" name="LMUSIC"> F  </i>
   <v name="POMASS">     50.94100000     95.94000000    183.85000000     32.06600000</v>
   <v name="DARWINR">      0.00000000      0.00000000      0.00000000      0.00000000</v>
   <v name="DARWINV">      1.00000000      1.00000000      1.00000000      1.00000000</v>
   <i type="logical" name="LCORR"> T  </i>
  </separator>
  <i type="logical" name="GGA_COMPAT"> T  </i>
  <i type="logical" name="LBERRY"> F  </i>
  <i type="int" name="ICORELEVEL">     0</i>
  <i type="logical" name="LDAU"> F  </i>
  <i type="int" name="I_CONSTRAINED_M">     0</i>
  <separator name="electronic exchange-correlation" >
   <i type="string" name="GGA">--</i>
   <i type="int" name="VOSKOWN">     0</i>
   <i type="logical" name="LHFCALC"> F  </i>
   <i type="string" name="PRECFOCK"></i>
   <i type="logical" name="LSYMGRAD"> F  </i>
   <i type="logical" name="LHFONE"> F  </i>
   <i type="logical" name="LRHFCALC"> F  </i>
   <i type="logical" name="LTHOMAS"> F  </i>
   <i type="logical" name="LMODELHF"> F  </i>
   <i name="ENCUT4O">     -1.00000000</i>
   <i type="int" name="EXXOEP">     0</i>
   <i type="int" name="FOURORBIT">     0</i>
   <i name="AEXX">      0.00000000</i>
   <i name="HFALPHA">      0.00000000</i>
   <i name="MCALPHA">      0.00000000</i>
   <i name="ALDAX">      1.00000000</i>
   <i name="AGGAX">      1.00000000</i>
   <i name="ALDAC">      1.00000000</i>
   <i name="AGGAC">      1.00000000</i>
   <i type="int" name="NKREDX">     1</i>
   <i type="int" name="NKREDY">     1</i>
   <i type="int" name="NKREDZ">     1</i>
   <i type="logical" name="SHIFTRED"> F  </i>
   <i type="logical" name="ODDONLY"> F  </i>
   <i type="logical" name="EVENONLY"> F  </i>
   <i type="int" name="LMAXFOCK">     0</i>
   <i type="int" name="NMAXFOCKAE">     0</i>
   <i type="logical" name="LFOCKAEDFT"> F  </i>
   <i name="HFSCREEN">      0.00000000</i>
   <i name="HFSCREENC">      0.00000000</i>
   <i type="int" name="NBANDSGWLOW">     0</i>
  </separator>
  <separator name="vdW DFT" >
   <i type="logical" name="LUSE_VDW"> F  </i>
   <i name="Zab_VDW">     -0.84910000</i>
   <i name="PARAM1">      0.12340000</i>
   <i name="PARAM2">      1.00000000</i>
   <i name="PARAM3">      0.00000000</i>
  </separator>
  <separator name="model GW" >
   <i type="int" name="MODEL_GW">     0</i>
   <i name="MODEL_EPS0">     58.26239943</i>
   <i name="MODEL_ALPHA">      1.00000000</i>
  </separator>
  <separator name="linear response parameters" >
   <i type="logical" name="LEPSILON"> F  </i>
   <i type="logical" name="LRPA"> F  </i>
   <i type="logical" name="LNABLA"> F  </i>
   <i type="logical" name="LVEL"> F  </i>
   <i type="int" name="KINTER">     0</i>
   <i name="CSHIFT">      0.10000000</i>
   <i name="OMEGAMAX">     -1.00000000</i>
   <i name="DEG_THRESHOLD">      0.00200000</i>
  </separator>
  <separator name="orbital magnetization" >
   <i type="logical" name="NUCIND"> F  </i>
   <v name="MAGPOS">      0.00000000      0.00000000      0.00000000</v>
   <i type="logical" name="LNICSALL"> T  </i>
   <i type="logical" name="ORBITALMAG"> F  </i>
   <i type="logical" name="LMAGBLOCH"> F  </i>
   <i type="logical" name="LCHIMAG"> F  </i>
   <i type="logical" name="LGAUGE"> T  </i>
   <i type="int" name="MAGATOM">     0</i>
   <v name="MAGDIPOL">      0.00000000      0.00000000      0.00000000</v>
   <v name="AVECCONST">      0.00000000      0.00000000      0.00000000</v>
  </separator>
  <separator name="response functions" >
   <i type="logical" name="LADDER"> F  </i>
   <i type="logical" name="LFXC"> F  </i>
   <i type="logical" name="LHARTREE"> T  </i>
   <i type="int" name="IBSE">     0</i>
   <v type="int" name="KPOINT">    -1     0     0     0</v>
   <i type="logical" name="LTCTE"> F  </i>
   <i type="logical" name="LTETE"> F  </i>
   <i type="logical" name="LTRIPLET"> F  </i>
   <i type="logical" name="LFXCEPS"> F  </i>
   <i type="logical" name="LFXHEG"> F  </i>
   <i type="int" name="NATURALO">     0</i>
   <i type="logical" name="L2ORDER"> F  </i>
   <i type="logical" name="LUSEW"> F  </i>
   <i name="ENCUTGW">     -2.00000000</i>
   <i name="ENCUTGWSOFT">     -2.00000000</i>
   <i name="ENCUTLF">     -1.00000000</i>
   <i type="int" name="LMAXMP2">    -1</i>
   <i name="SCISSOR">      0.00000000</i>
   <i type="int" name="NOMEGA">     0</i>
   <i type="int" name="NOMEGAR">     0</i>
   <i type="int" name="NBANDSGW">    -1</i>
   <i type="int" name="NBANDSO">    -1</i>
   <i type="int" name="NBANDSV">    -1</i>
   <i type="int" name="NELM">     1</i>
   <i type="int" name="NELMHF">     1</i>
   <i type="int" name="DIM">     3</i>
   <i type="int" name="ANTIRES">     0</i>
   <i name="OMEGAMAX">    -30.00000000</i>
   <i name="OMEGAMIN">    -30.00000000</i>
   <i name="OMEGATL">   -200.00000000</i>
   <i type="int" name="OMEGAGRID">     0</i>
   <i name="CSHIFT">     -0.10000000</i>
   <i type="logical" name="SELFENERGY"> F  </i>
   <i type="logical" name="LSPECTRAL"> F  </i>
   <i type="logical" name="LSPECTRALGW"> F  </i>
   <i type="logical" name="LSINGLES"> F  </i>
   <i type="logical" name="LFERMIGW"> F  </i>
   <i type="logical" name="ODDONLYGW"> F  </i>
   <i type="logical" name="EVENONLYGW"> F  </i>
   <i type="int" name="NKREDLFX">     1</i>
   <i type="int" name="NKREDLFY">     1</i>
   <i type="int" name="NKREDLFZ">     1</i>
   <i type="int" name="MAXMEM">  1800</i>
   <i type="int" name="TELESCOPE">     0</i>
   <i type="int" name="TAUPAR">     1</i>
   <i type="int" name="OMEGAPAR">    -1</i>
   <i name="LAMBDA">      1.00000000</i>
  </separator>
  <separator name="External order field" >
   <i name="OFIELD_KAPPA">      0.00000000</i>
   <v name="OFIELD_K">      0.00000000      0.00000000      0.00000000</v>
   <i name="OFIELD_Q6_NEAR">      0.00000000</i>
   <i name="OFIELD_Q6_FAR">      0.00000000</i>
   <i name="OFIELD_A">      0.00000000</i>
  </separator>
 </parameters>
 <atominfo>
  <atoms>      27 </atoms>
  <types>       4 </types>
  <array name="atoms" >
   <dimension dim="1">ion</dimension>
   <field type="string">element</field>
   <field type="int">atomtype</field>
   <set>
    <rc><c>V </c><c>   1</c></rc>
    <rc><c>V </c><c>   1</c></rc>
    <rc><c>V </c><c>   1</c></rc>
    <rc><c>Mo</c><c>   2</c></rc>
    <rc><c>Mo</c><c>   2</c></rc>
    <rc><c>Mo</c><c>   2</c></rc>
    <rc><c>W </c><c>   3</c></rc>
    <rc><c>W </c><c>   3</c></rc>
    <rc><c>W </c><c>   3</c></rc>
    <rc><c>S </c><c>   4</c></rc>
    <rc><c>S </c><c>   4</c></rc>
    <rc><c>S </c><c>   4</c></rc>
    <rc><c>S </c><c>   4</c></rc>
    <rc><c>S </c><c>   4</c></rc>
    <rc><c>S </c><c>   4</c></rc>
    <rc><c>S </c><c>   4</c></rc>
    <rc><c>S </c><c>   4</c></rc>
    <rc><c>S </c><c>   4</c></rc>
    <rc><c>S </c><c>   4</c></rc>
    <rc><c>S </c><c>   4</c></rc>
    <rc><c>S </c><c>   4</c></rc>
    <rc><c>S </c><c>   4</c></rc>
    <rc><c>S </c><c>   4</c></rc>
    <rc><c>S </c><c>   4</c></rc>
    <rc><c>S </c><c>   4</c></rc>
    <rc><c>S </c><c>   4</c></rc>
    <rc><c>S </c><c>   4</c></rc>
   </set>
  </array>
  <array name="atomtypes" >
   <dimension dim="1">type</dimension>
   <field type="int">atomspertype</field>
   <field type="string">element</field>
   <field>mass</field>
   <field>valence</field>
   <field type="string">pseudopotential</field>
   <set>
    <rc><c>   3</c><c>V </c><c>     50.94100000</c><c>      5.00000000</c><c> PAW_PBE V 08Apr2002                    </c></rc>
    <rc><c>   3</c><c>Mo</c><c>     95.94000000</c><c>      6.00000000</c><c> PAW_PBE Mo 08Apr2002                   </c></rc>
    <rc><c>   3</c><c>W </c><c>    183.85000000</c><c>      6.00000000</c><c> PAW_PBE W 08Apr2002                    </c></rc>
    <rc><c>  18</c><c>S </c><c>     32.06600000</c><c>      6.00000000</c><c>  PAW_PBE S 17Jan2003                   </c></rc>
   </set>
  </array>
 </atominfo>
 <structure name="initialpos" >
  <crystal>
   <varray name="basis" >
    <v>       8.66999996       5.03999989       0.00000000 </v>
    <v>      -8.66999982       5.04000013       0.00000000 </v>
    <v>       0.00000000       0.00000000      30.00000000 </v>
   </varray>
   <i name="volume">   2621.80797419 </i>
   <varray name="rec_basis" >
    <v>       0.05767013       0.09920635       0.00000000 </v>
    <v>      -0.05767013       0.09920635       0.00000000 </v>
    <v>       0.00000000       0.00000000       0.03333333 </v>
   </varray>
  </crystal>
  <varray name="positions" >
   <v>       0.66666669       0.00000000       0.00000000 </v>
   <v>       0.33333334       0.33333334       0.00000000 </v>
   <v>       1.00000000       0.33333334       0.00000000 </v>
   <v>       0.33333334       0.66666669       0.00000000 </v>
   <v>       0.00000000       0.66666669       0.00000000 </v>
   <v>       0.00000000       0.00000000       0.00000000 </v>
   <v>       0.33333334       0.00000000       0.00000000 </v>
   <v>       0.66666669       0.33333334       0.00000000 </v>
   <v>       0.66666669       0.66666669       0.00000000 </v>
   <v>       0.11068511       0.22244981       0.95539999 </v>
   <v>       0.22244981       0.11068511       0.04460000 </v>
   <v>       0.11068511       0.55578315       0.95539999 </v>
   <v>       0.22244981       0.44401845       0.04460000 </v>
   <v>       0.11068511       0.88911647       0.95539999 </v>
   <v>       0.22244981       0.77735180       0.04460000 </v>
   <v>       0.44401845       0.22244981       0.95539999 </v>
   <v>       0.55578315       0.11068511       0.04460000 </v>
   <v>       0.44401845       0.55578315       0.95539999 </v>
   <v>       0.55578315       0.44401845       0.04460000 </v>
   <v>       0.44401845       0.88911647       0.95539999 </v>
   <v>       0.55578315       0.77735180       0.04460000 </v>
   <v>       0.77735180       0.22244981       0.95539999 </v>
   <v>       0.88911647       0.11068511       0.04460000 </v>
   <v>       0.77735180       0.55578315       0.95539999 </v>
   <v>       0.88911647       0.44401845       0.04460000 </v>
   <v>       0.77735180       0.88911647       0.95539999 </v>
   <v>       0.88911647       0.77735180       0.04460000 </v>
  </varray>
 </structure>
 <calculation>
  <scstep>
   <time name="dav">   21.61   21.67</time>
   <time name="total">   21.66   21.72</time>
   <energy>
    <i name="alphaZ">     81.65567618 </i>
    <i name="ewald">  41890.23011097 </i>
    <i name="hartreedc"> -47722.86570007 </i>
    <i name="XCdc">   -242.92872162 </i>
    <i name="pawpsdc">   3467.42045192 </i>
    <i name="pawaedc">  -2871.19716117 </i>
    <i name="eentropy">     -0.52195007 </i>
    <i name="bandstr">   -238.81937918 </i>
    <i name="atom">   6761.44252427 </i>
    <i name="e_fr_energy">   1124.41585123 </i>
    <i name="e_wo_entrp">   1124.93780129 </i>
    <i name="e_0_energy">   1124.67682626 </i>
   </energy>
  </scstep>
  <scstep>
   <time name="dav">   27.84   27.91</time>
   <time name="total">   27.84   27.92</time>
   <energy>
    <i name="e_fr_energy">     -3.00820642 </i>
    <i name="e_wo_entrp">     -2.82053778 </i>
    <i name="e_0_energy">     -2.91437210 </i>
   </energy>
  </scstep>
  <scstep>
   <time name="dav">   27.36   27.43</time>
   <time name="total">   27.36   27.44</time>
   <energy>
    <i name="e_fr_energy">   -199.71576340 </i>
    <i name="e_wo_entrp">   -199.44666156 </i>
    <i name="e_0_energy">   -199.58121248 </i>
   </energy>
  </scstep>
  <scstep>
   <time name="dav">   29.76   29.83</time>
   <time name="total">   29.76   29.84</time>
   <energy>
    <i name="e_fr_energy">   -208.95258814 </i>
    <i name="e_wo_entrp">   -208.63595237 </i>
    <i name="e_0_energy">   -208.79427025 </i>
   </energy>
  </scstep>
  <scstep>
   <time name="dav">   28.42   28.49</time>
   <time name="total">   28.89   28.96</time>
   <energy>
    <i name="e_fr_energy">   -209.28704051 </i>
    <i name="e_wo_entrp">   -208.97284524 </i>
    <i name="e_0_energy">   -209.12994288 </i>
   </energy>
  </scstep>
  <scstep>
   <time name="dav">   31.13   31.21</time>
   <time name="total">   31.63   31.71</time>
   <energy>
    <i name="e_fr_energy">   -236.79828722 </i>
    <i name="e_wo_entrp">   -236.51095369 </i>
    <i name="e_0_energy">   -236.65462046 </i>
   </energy>
  </scstep>
  <scstep>
   <time name="dav">   32.37   32.45</time>
   <time name="total">   32.87   32.96</time>
   <energy>
    <i name="e_fr_energy">   -196.66568244 </i>
    <i name="e_wo_entrp">   -196.34372502 </i>
    <i name="e_0_energy">   -196.50470373 </i>
   </energy>
  </scstep>
  <scstep>
   <time name="dav">   29.41   29.48</time>
   <time name="total">   29.92   30.00</time>
   <energy>
    <i name="e_fr_energy">   -190.03114710 </i>
    <i name="e_wo_entrp">   -189.75726461 </i>
    <i name="e_0_energy">   -189.89420586 </i>
   </energy>
  </scstep>
  <scstep>
   <time name="dav">   29.51   29.58</time>
   <time name="total">   30.03   30.11</time>
   <energy>
    <i name="e_fr_energy">   -188.24007525 </i>
    <i name="e_wo_entrp">   -187.90159791 </i>
    <i name="e_0_energy">   -188.07083658 </i>
   </energy>
  </scstep>
  <scstep>
   <time name="dav">   32.42   32.50</time>
   <time name="total">   32.95   33.04</time>
   <energy>
    <i name="e_fr_energy">   -187.05630650 </i>
    <i name="e_wo_entrp">   -186.71253030 </i>
    <i name="e_0_energy">   -186.88441840 </i>
   </energy>
  </scstep>
  <scstep>
   <time name="dav">   30.72   30.79</time>
   <time name="total">   31.25   31.33</time>
   <energy>
    <i name="e_fr_energy">   -186.99896127 </i>
    <i name="e_wo_entrp">   -186.64755239 </i>
    <i name="e_0_energy">   -186.82325683 </i>
   </energy>
  </scstep>
  <scstep>
   <time name="dav">   30.48   30.55</time>
   <time name="total">   31.01   31.09</time>
   <energy>
    <i name="e_fr_energy">   -187.08377131 </i>
    <i name="e_wo_entrp">   -186.74993148 </i>
    <i name="e_0_energy">   -186.91685139 </i>
   </energy>
  </scstep>
  <scstep>
   <time name="dav">   31.77   31.85</time>
   <time name="total">   32.30   32.39</time>
   <energy>
    <i name="e_fr_energy">   -186.90913870 </i>
    <i name="e_wo_entrp">   -186.57096037 </i>
    <i name="e_0_energy">   -186.74004953 </i>
   </energy>
  </scstep>
  <scstep>
   <time name="dav">   31.56   31.64</time>
   <time name="total">   32.09   32.18</time>
   <energy>
    <i name="e_fr_energy">   -186.89779717 </i>
    <i name="e_wo_entrp">   -186.55376330 </i>
    <i name="e_0_energy">   -186.72578024 </i>
   </energy>
  </scstep>
  <scstep>
   <time name="dav">   31.11   31.18</time>
   <time name="total">   31.63   31.72</time>
   <energy>
    <i name="e_fr_energy">   -186.87233517 </i>
    <i name="e_wo_entrp">   -186.52559203 </i>
    <i name="e_0_energy">   -186.69896360 </i>
   </energy>
  </scstep>
  <scstep>
   <time name="dav">   30.72   30.80</time>
   <time name="total">   31.25   31.33</time>
   <energy>
    <i name="e_fr_energy">   -186.86784629 </i>
    <i name="e_wo_entrp">   -186.52212808 </i>
    <i name="e_0_energy">   -186.69498718 </i>
   </energy>
  </scstep>
  <scstep>
   <time name="dav">   31.28   31.36</time>
   <time name="total">   31.81   31.90</time>
   <energy>
    <i name="e_fr_energy">   -186.86609029 </i>
    <i name="e_wo_entrp">   -186.52189285 </i>
    <i name="e_0_energy">   -186.69399157 </i>
   </energy>
  </scstep>
  <scstep>
   <time name="dav">   28.92   28.99</time>
   <time name="total">   29.45   29.54</time>
   <energy>
    <i name="e_fr_energy">   -186.86542895 </i>
    <i name="e_wo_entrp">   -186.52107992 </i>
    <i name="e_0_energy">   -186.69325444 </i>
   </energy>
  </scstep>
  <scstep>
   <time name="dav">   25.45   25.51</time>
   <time name="total">   25.98   26.05</time>
   <energy>
    <i name="e_fr_energy">   -186.86530152 </i>
    <i name="e_wo_entrp">   -186.52071182 </i>
    <i name="e_0_energy">   -186.69300667 </i>
   </energy>
  </scstep>
  <scstep>
   <time name="dav">   23.36   23.42</time>
   <time name="total">   23.89   23.96</time>
   <energy>
    <i name="e_fr_energy">   -186.86614589 </i>
    <i name="e_wo_entrp">   -186.52174648 </i>
    <i name="e_0_energy">   -186.69394618 </i>
   </energy>
  </scstep>
  <scstep>
   <time name="dav">   21.84   21.89</time>
   <time name="total">   22.37   22.43</time>
   <energy>
    <i name="e_fr_energy">   -186.86682894 </i>
    <i name="e_wo_entrp">   -186.52250712 </i>
    <i name="e_0_energy">   -186.69466803 </i>
   </energy>
  </scstep>
  <scstep>
   <time name="dav">   20.21   20.25</time>
   <time name="total">   20.74   20.79</time>
   <energy>
    <i name="e_fr_energy">   -186.86785281 </i>
    <i name="e_wo_entrp">   -186.52339722 </i>
    <i name="e_0_energy">   -186.69562501 </i>
   </energy>
  </scstep>
  <scstep>
   <time name="dav">   20.16   20.21</time>
   <time name="total">   20.69   20.75</time>
   <energy>
    <i name="e_fr_energy">   -186.86901317 </i>
    <i name="e_wo_entrp">   -186.52468945 </i>
    <i name="e_0_energy">   -186.69685131 </i>
   </energy>
  </scstep>
  <scstep>
   <time name="dav">   18.94   18.98</time>
   <time name="total">   19.47   19.52</time>
   <energy>
    <i name="e_fr_energy">   -186.86958713 </i>
    <i name="e_wo_entrp">   -186.52521516 </i>
    <i name="e_0_energy">   -186.69740114 </i>
   </energy>
  </scstep>
  <scstep>
   <time name="dav">   16.15   16.19</time>
   <time name="total">   16.68   16.73</time>
   <energy>
    <i name="e_fr_energy">   -186.86995105 </i>
    <i name="e_wo_entrp">   -186.52555771 </i>
    <i name="e_0_energy">   -186.69775438 </i>
   </energy>
  </scstep>
  <scstep>
   <time name="dav">   18.94   18.99</time>
   <time name="total">   19.47   19.53</time>
   <energy>
    <i name="e_fr_energy">   -186.87019493 </i>
    <i name="e_wo_entrp">   -186.52581889 </i>
    <i name="e_0_energy">   -186.69800691 </i>
   </energy>
  </scstep>
  <scstep>
   <time name="dav">   20.06   20.11</time>
   <time name="total">   20.10   20.15</time>
   <energy>
    <i name="alphaZ">     81.65567618 </i>
    <i name="ewald">  41890.23011097 </i>
    <i name="hartreedc"> -47832.99263839 </i>
    <i name="XCdc">   -231.60402396 </i>
    <i name="pawpsdc">   4192.12458969 </i>
    <i name="pawaedc">  -3610.13956425 </i>
    <i name="eentropy">     -0.34438133 </i>
    <i name="bandstr">  -1437.24257799 </i>
    <i name="atom">   6761.44252427 </i>
    <i name="e_fr_energy">   -186.87028481 </i>
    <i name="e_wo_entrp">   -186.52590347 </i>
    <i name="e_0_energy">   -186.69809414 </i>
   </energy>
  </scstep>
  <structure>
   <crystal>
    <varray name="basis" >
     <v>       8.66999996       5.03999989       0.00000000 </v>
     <v>      -8.66999982       5.04000013       0.00000000 </v>
     <v>       0.00000000       0.00000000      30.00000000 </v>
    </varray>
    <i name="volume">   2621.80797419 </i>
    <varray name="rec_basis" >
     <v>       0.05767013       0.09920635       0.00000000 </v>
     <v>      -0.05767013       0.09920635       0.00000000 </v>
     <v>       0.00000000       0.00000000       0.03333333 </v>
    </varray>
   </crystal>
   <varray name="positions" >
    <v>       0.66666669       0.00000000       0.00000000 </v>
    <v>       0.33333334       0.33333334       0.00000000 </v>
    <v>       1.00000000       0.33333334       0.00000000 </v>
    <v>       0.33333334       0.66666669       0.00000000 </v>
    <v>       0.00000000       0.66666669       0.00000000 </v>
    <v>       0.00000000       0.00000000       0.00000000 </v>
    <v>       0.33333334       0.00000000       0.00000000 </v>
    <v>       0.66666669       0.33333334       0.00000000 </v>
    <v>       0.66666669       0.66666669       0.00000000 </v>
    <v>       0.11068511       0.22244981       0.95539999 </v>
    <v>       0.22244981       0.11068511       0.04460000 </v>
    <v>       0.11068511       0.55578315       0.95539999 </v>
    <v>       0.22244981       0.44401845       0.04460000 </v>
    <v>       0.11068511       0.88911647       0.95539999 </v>
    <v>       0.22244981       0.77735180       0.04460000 </v>
    <v>       0.44401845       0.22244981       0.95539999 </v>
    <v>       0.55578315       0.11068511       0.04460000 </v>
    <v>       0.44401845       0.55578315       0.95539999 </v>
    <v>       0.55578315       0.44401845       0.04460000 </v>
    <v>       0.44401845       0.88911647       0.95539999 </v>
    <v>       0.55578315       0.77735180       0.04460000 </v>
    <v>       0.77735180       0.22244981       0.95539999 </v>
    <v>       0.88911647       0.11068511       0.04460000 </v>
    <v>       0.77735180       0.55578315       0.95539999 </v>
    <v>       0.88911647       0.44401845       0.04460000 </v>
    <v>       0.77735180       0.88911647       0.95539999 </v>
    <v>       0.88911647       0.77735180       0.04460000 </v>
   </varray>
  </structure>
  <varray name="forces" >
   <v>       0.22485792      -0.02489619      -0.06404787 </v>
   <v>      -0.28550285      -0.15118633       0.08097795 </v>
   <v>       0.08436840       0.19468659       0.01359874 </v>
   <v>      -0.26062481      -0.18681208      -0.02534122 </v>
   <v>       0.01803473       0.28450627      -0.02626271 </v>
   <v>       0.16805023      -0.11267677       0.04984650 </v>
   <v>       0.00751847      -0.61703294      -0.12862254 </v>
   <v>       0.09145647       0.30617952      -0.02825488 </v>
   <v>      -0.05841019       0.28776514       0.10968111 </v>
   <v>      -0.32352129       0.66677666      -1.42371006 </v>
   <v>      -0.39209040       0.72874162       2.16385220 </v>
   <v>       0.52393152      -0.69273632      -2.14794156 </v>
   <v>       0.34381109      -0.67196930       1.44733569 </v>
   <v>       0.21946976       0.16950281      -2.93652612 </v>
   <v>      -0.19495531       0.13311681       2.93515405 </v>
   <v>      -0.58177888      -0.00251687      -2.07064523 </v>
   <v>       0.59230330       0.01387996       2.06496188 </v>
   <v>       0.60904083      -0.55266879      -2.10357029 </v>
   <v>      -0.48218198      -0.58474883       2.19507531 </v>
   <v>       0.35740373       0.73052587      -2.17704664 </v>
   <v>      -0.34422977       0.68735170       2.14859393 </v>
   <v>       0.73683216      -0.02461910      -1.48307832 </v>
   <v>      -0.88921699      -0.00294281       1.43657296 </v>
   <v>       0.08131571      -0.11666552      -2.89125126 </v>
   <v>       0.65060199      -0.14542286       2.11336097 </v>
   <v>      -0.69427904      -0.13876622      -2.14825792 </v>
   <v>      -0.20220479      -0.17737200       2.89554531 </v>
  </varray>
  <varray name="stress" >
   <v>       7.29404434      -0.09681897      -1.50678626 </v>
   <v>      -0.09681907       4.46906834      -0.04750192 </v>
   <v>      -1.50678629      -0.04750204      30.29948884 </v>
  </varray>
  <energy>
   <i name="e_fr_energy">   -186.87028481 </i>
   <i name="e_wo_entrp">   -186.69809414 </i>
   <i name="e_0_energy">     -0.34438133 </i>
  </energy>
  <time name="totalsc">  774.67  776.75</time>
 </calculation>
 <calculation>
  <scstep>
   <time name="dav">   21.52   21.57</time>
   <time name="total">   22.06   22.12</time>
   <energy>
    <i name="alphaZ">     78.91935409 </i>
    <i name="ewald">  39378.96770628 </i>
    <i name="hartreedc"> -45336.45096606 </i>
    <i name="XCdc">   -239.06232594 </i>
    <i name="pawpsdc">   4192.10646758 </i>
    <i name="pawaedc">  -3610.12157325 </i>
    <i name="eentropy">     -0.28525798 </i>
    <i name="bandstr">  -1413.02171436 </i>
    <i name="atom">   6761.44252427 </i>
    <i name="e_fr_energy">   -187.50578534 </i>
    <i name="e_wo_entrp">   -187.22052737 </i>
    <i name="e_0_energy">   -187.36315636 </i>
   </energy>
  </scstep>
  <scstep>
   <time name="dav">   30.11   30.18</time>
   <time name="total">   30.64   30.72</time>
   <energy>
    <i name="e_fr_energy">   -189.49820938 </i>
    <i name="e_wo_entrp">   -189.16450893 </i>
    <i name="e_0_energy">   -189.33135915 </i>
   </energy>
  </scstep>
  <scstep>
   <time name="dav">   30.33   30.40</time>
   <time name="total">   30.87   30.96</time>
   <energy>
    <i name="e_fr_energy">   -189.35550595 </i>
    <i name="e_wo_entrp">   -189.07636097 </i>
    <i name="e_0_energy">   -189.21593346 </i>
   </energy>
  </scstep>
  <scstep>
   <time name="dav">   30.42   30.49</time>
   <time name="total">   30.96   31.05</time>
   <energy>
    <i name="e_fr_energy">   -188.79478679 </i>
    <i name="e_wo_entrp">   -188.50974300 </i>
    <i name="e_0_energy">   -188.65226489 </i>
   </energy>
  </scstep>
  <scstep>
   <time name="dav">   28.42   28.49</time>
   <time name="total">   28.96   29.04</time>
   <energy>
    <i name="e_fr_energy">   -188.86819269 </i>
    <i name="e_wo_entrp">   -188.57798262 </i>
    <i name="e_0_energy">   -188.72308766 </i>
   </energy>
  </scstep>
  <scstep>
   <time name="dav">   30.87   30.95</time>
   <time name="total">   31.41   31.50</time>
   <energy>
    <i name="e_fr_energy">   -188.78274314 </i>
    <i name="e_wo_entrp">   -188.49514566 </i>
    <i name="e_0_energy">   -188.63894440 </i>
   </energy>
  </scstep>
  <scstep>
   <time name="dav">   28.77   28.84</time>
   <time name="total">   29.31   29.39</time>
   <energy>
    <i name="e_fr_energy">   -188.70001082 </i>
    <i name="e_wo_entrp">   -188.41491895 </i>
    <i name="e_0_energy">   -188.55746488 </i>
   </energy>
  </scstep>
  <scstep>
   <time name="dav">   28.68   28.75</time>
   <time name="total">   29.22   29.30</time>
   <energy>
    <i name="e_fr_energy">   -188.68308783 </i>
    <i name="e_wo_entrp">   -188.39940802 </i>
    <i name="e_0_energy">   -188.54124792 </i>
   </energy>
  </scstep>
  <scstep>
   <time name="dav">   28.56   28.63</time>
   <time name="total">   29.10   29.18</time>
   <energy>
    <i name="e_fr_energy">   -188.68022671 </i>
    <i name="e_wo_entrp">   -188.39652132 </i>
    <i name="e_0_energy">   -188.53837402 </i>
   </energy>
  </scstep>
  <scstep>
   <time name="dav">   29.12   29.19</time>
   <time name="total">   29.66   29.75</time>
   <energy>
    <i name="e_fr_energy">   -188.67598260 </i>
    <i name="e_wo_entrp">   -188.39236808 </i>
    <i name="e_0_energy">   -188.53417534 </i>
   </energy>
  </scstep>
  <scstep>
   <time name="dav">   31.91   32.00</time>
   <time name="total">   32.46   32.55</time>
   <energy>
    <i name="e_fr_energy">   -188.67535303 </i>
    <i name="e_wo_entrp">   -188.39237845 </i>
    <i name="e_0_energy">   -188.53386574 </i>
   </energy>
  </scstep>
  <scstep>
   <time name="dav">   29.63   29.71</time>
   <time name="total">   30.17   30.26</time>
   <energy>
    <i name="e_fr_energy">   -188.67519103 </i>
    <i name="e_wo_entrp">   -188.39259541 </i>
    <i name="e_0_energy">   -188.53389322 </i>
   </energy>
  </scstep>
  <scstep>
   <time name="dav">   20.79   20.84</time>
   <time name="total">   20.82   20.89</time>
   <energy>
    <i name="alphaZ">     78.91935409 </i>
    <i name="ewald">  39378.96770628 </i>
    <i name="hartreedc"> -45347.21202691 </i>
    <i name="XCdc">   -237.97582283 </i>
    <i name="pawpsdc">   3950.41336712 </i>
    <i name="pawaedc">  -3364.92516672 </i>
    <i name="eentropy">     -0.28278807 </i>
    <i name="bandstr">  -1408.02237113 </i>
    <i name="atom">   6761.44252427 </i>
    <i name="e_fr_energy">   -188.67522390 </i>
    <i name="e_wo_entrp">   -188.39243583 </i>
    <i name="e_0_energy">   -188.53382986 </i>
   </energy>
  </scstep>
  <structure>
   <crystal>
    <varray name="basis" >
     <v>       8.85347675       5.10340304       0.00000000 </v>
     <v>      -8.85633011       5.10831199       0.00000000 </v>
     <v>       0.00000000       0.00000000      30.00000000 </v>
    </varray>
    <i name="volume">   2712.71230480 </i>
    <varray name="rec_basis" >
     <v>       0.05649304       0.09794253       0.00000000 </v>
     <v>      -0.05643875       0.09791097       0.00000000 </v>
     <v>       0.00000000       0.00000000       0.03333333 </v>
    </varray>
   </crystal>
   <varray name="positions" >
    <v>       0.66717312      -0.00074474      -0.00010299 </v>
    <v>       0.33181545       0.33340408       0.00013022 </v>
    <v>       1.00116649       0.33403038       0.00002187 </v>
    <v>       0.33171416       0.66649771      -0.00004075 </v>
    <v>       0.00141182       0.66797815      -0.00004223 </v>
    <v>      -0.00007173      -0.00100681       0.00008016 </v>
    <v>       0.33040116      -0.00297402      -0.00020684 </v>
    <v>       0.66838650       0.33454427      -0.00004544 </v>
    <v>       0.66788142       0.66820643       0.00017638 </v>
    <v>       0.11297620       0.22654108       0.95311054 </v>
    <v>       0.22484669       0.11526371       0.04807966 </v>
    <v>       0.10882735       0.55101007       0.95194591 </v>
    <v>       0.22019032       0.43984589       0.04692744 </v>
    <v>       0.11210695       0.88931710       0.95067780 </v>
    <v>       0.22254451       0.77853129       0.04931999 </v>
    <v>       0.44238781       0.22405637       0.95207021 </v>
    <v>       0.55749746       0.10910366       0.04792064 </v>
    <v>       0.44306784       0.55144364       0.95201726 </v>
    <v>       0.55164305       0.44256137       0.04812987 </v>
    <v>       0.44850909       0.89161839       0.95189911 </v>
    <v>       0.55811510       0.78159915       0.04805513 </v>
    <v>       0.77928396       0.22028200       0.95301507 </v>
    <v>       0.88662844       0.11314497       0.04691014 </v>
    <v>       0.77701967       0.55499856       0.95075060 </v>
    <v>       0.89023055       0.44151238       0.04799847 </v>
    <v>       0.77475607       0.89038393       0.95194540 </v>
    <v>       0.88770500       0.77706546       0.04925629 </v>
   </varray>
  </structure>
  <varray name="forces" >
   <v>       0.19353638      -0.05809952       0.07265088 </v>
   <v>      -0.18616548      -0.07190848      -0.05158446 </v>
   <v>       0.02707387       0.16106173       0.00135009 </v>
   <v>      -0.39116969      -0.07041007      -0.08483302 </v>
   <v>      -0.11018248       0.39972322      -0.00969304 </v>
   <v>       0.41353154      -0.24405311       0.08129293 </v>
   <v>       0.02222732      -0.72902464      -0.03357891 </v>
   <v>      -0.07108524       0.34914832       0.01199204 </v>
   <v>       0.10948943       0.26315061       0.04021526 </v>
   <v>      -0.01637109       0.02757612       0.08823544 </v>
   <v>       0.11744484       0.05873940      -0.03345330 </v>
   <v>       0.04043096      -0.07883427      -0.07285628 </v>
   <v>      -0.00583445      -0.05591864       0.03174685 </v>
   <v>       0.06334562       0.10633277      -0.27856031 </v>
   <v>      -0.06291338       0.10328532       0.22650457 </v>
   <v>       0.09473332      -0.00178107       0.23121149 </v>
   <v>      -0.09936312       0.00322154      -0.27114705 </v>
   <v>       0.07905165       0.05532155       0.16571143 </v>
   <v>       0.04490980       0.06277490      -0.10640588 </v>
   <v>      -0.11867947       0.05748500      -0.00448698 </v>
   <v>       0.10244737       0.05107313      -0.05489790 </v>
   <v>      -0.09461482       0.00748178       0.12623431 </v>
   <v>      -0.03146396       0.00829717      -0.16163073 </v>
   <v>      -0.06996696      -0.08389923      -0.00062257 </v>
   <v>      -0.01849275      -0.10258200      -0.01359480 </v>
   <v>       0.00885706      -0.09755903      -0.07553683 </v>
   <v>      -0.04077625      -0.12060250       0.17573675 </v>
  </varray>
  <varray name="stress" >
   <v>     -19.90475785       0.01818627       0.01131935 </v>
   <v>       0.01818625     -19.50033486       0.02036439 </v>
   <v>       0.01131916       0.02036430      -1.74820217 </v>
  </varray>
  <energy>
   <i name="e_fr_energy">   -188.67522390 </i>
   <i name="e_wo_entrp">   -188.53382986 </i>
   <i name="e_0_energy">     -0.28278807 </i>
  </energy>
  <time name="totalsc">  417.47  418.61</time>
 </calculation>
 <calculation>
  <scstep>
   <time name="dav">   23.52   23.58</time>
   <time name="total">   24.05   24.11</time>
   <energy>
    <i name="alphaZ">     82.33972663 </i>
    <i name="ewald">  41300.33807893 </i>
    <i name="hartreedc"> -47299.13054292 </i>
    <i name="XCdc">   -233.85602605 </i>
    <i name="pawpsdc">   3949.96354626 </i>
    <i name="pawaedc">  -3364.47086619 </i>
    <i name="eentropy">     -0.23718417 </i>
    <i name="bandstr">  -1386.98384354 </i>
    <i name="atom">   6761.44252427 </i>
    <i name="e_fr_energy">   -190.59458677 </i>
    <i name="e_wo_entrp">   -190.35740261 </i>
    <i name="e_0_energy">   -190.47599469 </i>
   </energy>
  </scstep>
  <scstep>
   <time name="dav">   27.80   27.88</time>
   <time name="total">   28.33   28.41</time>
   <energy>
    <i name="e_fr_energy">   -190.55951874 </i>
    <i name="e_wo_entrp">   -190.31603612 </i>
    <i name="e_0_energy">   -190.43777743 </i>
   </energy>
  </scstep>
  <scstep>
   <time name="dav">   30.27   30.35</time>
   <time name="total">   30.80   30.88</time>
   <energy>
    <i name="e_fr_energy">   -190.07911804 </i>
    <i name="e_wo_entrp">   -189.82833349 </i>
    <i name="e_0_energy">   -189.95372576 </i>
   </energy>
  </scstep>
  <scstep>
   <time name="dav">   31.06   31.13</time>
   <time name="total">   31.59   31.67</time>
   <energy>
    <i name="e_fr_energy">   -189.87514416 </i>
    <i name="e_wo_entrp">   -189.63591783 </i>
    <i name="e_0_energy">   -189.75553099 </i>
   </energy>
  </scstep>
  <scstep>
   <time name="dav">   30.16   30.23</time>
   <time name="total">   30.68   30.76</time>
   <energy>
    <i name="e_fr_energy">   -189.91458166 </i>
    <i name="e_wo_entrp">   -189.66794031 </i>
    <i name="e_0_energy">   -189.79126098 </i>
   </energy>
  </scstep>
  <scstep>
   <time name="dav">   30.17   30.25</time>
   <time name="total">   30.70   30.79</time>
   <energy>
    <i name="e_fr_energy">   -189.77095616 </i>
    <i name="e_wo_entrp">   -189.53075023 </i>
    <i name="e_0_energy">   -189.65085319 </i>
   </energy>
  </scstep>
  <scstep>
   <time name="dav">   30.10   30.17</time>
   <time name="total">   30.63   30.71</time>
   <energy>
    <i name="e_fr_energy">   -189.76441954 </i>
    <i name="e_wo_entrp">   -189.52412839 </i>
    <i name="e_0_energy">   -189.64427396 </i>
   </energy>
  </scstep>
  <scstep>
   <time name="dav">   29.11   29.18</time>
   <time name="total">   29.64   29.72</time>
   <energy>
    <i name="e_fr_energy">   -189.76511235 </i>
    <i name="e_wo_entrp">   -189.52486679 </i>
    <i name="e_0_energy">   -189.64498957 </i>
   </energy>
  </scstep>
  <scstep>
   <time name="dav">   26.31   26.37</time>
   <time name="total">   26.83   26.90</time>
   <energy>
    <i name="e_fr_energy">   -189.76448774 </i>
    <i name="e_wo_entrp">   -189.52425791 </i>
    <i name="e_0_energy">   -189.64437283 </i>
   </energy>
  </scstep>
  <scstep>
   <time name="dav">   25.36   25.42</time>
   <time name="total">   25.89   25.96</time>
   <energy>
    <i name="e_fr_energy">   -189.76463884 </i>
    <i name="e_wo_entrp">   -189.52427611 </i>
    <i name="e_0_energy">   -189.64445747 </i>
   </energy>
  </scstep>
  <scstep>
   <time name="dav">   22.78   22.84</time>
   <time name="total">   23.31   23.38</time>
   <energy>
    <i name="e_fr_energy">   -189.76445606 </i>
    <i name="e_wo_entrp">   -189.52412138 </i>
    <i name="e_0_energy">   -189.64428872 </i>
   </energy>
  </scstep>
  <scstep>
   <time name="dav">   20.22   20.27</time>
   <time name="total">   20.25   20.31</time>
   <energy>
    <i name="alphaZ">     82.33972663 </i>
    <i name="ewald">  41300.33807893 </i>
    <i name="hartreedc"> -47272.60576061 </i>
    <i name="XCdc">   -235.24663081 </i>
    <i name="pawpsdc">   4038.77007040 </i>
    <i name="pawaedc">  -3454.47615956 </i>
    <i name="eentropy">     -0.24031710 </i>
    <i name="bandstr">  -1410.08600839 </i>
    <i name="atom">   6761.44252427 </i>
    <i name="e_fr_energy">   -189.76447624 </i>
    <i name="e_wo_entrp">   -189.52415914 </i>
    <i name="e_0_energy">   -189.64431769 </i>
   </energy>
  </scstep>
  <structure>
   <crystal>
    <varray name="basis" >
     <v>       8.66583254       4.99755279       0.00000000 </v>
     <v>      -8.66842755       5.00201663       0.00000000 </v>
     <v>       0.00000000       0.00000000      30.00000000 </v>
    </varray>
    <i name="volume">   2600.02688496 </i>
    <varray name="rec_basis" >
     <v>       0.05771498       0.10001928       0.00000000 </v>
     <v>      -0.05766347       0.09998934       0.00000000 </v>
     <v>       0.00000000       0.00000000       0.03333333 </v>
    </varray>
   </crystal>
   <varray name="positions" >
    <v>       0.66726220      -0.00102695      -0.00006185 </v>
    <v>       0.33151713       0.33346297       0.00010101 </v>
    <v>       1.00146047       0.33427233       0.00002263 </v>
    <v>       0.33122158       0.66675565      -0.00008879 </v>
    <v>       0.00197118       0.66874870      -0.00004772 </v>
    <v>      -0.00008093      -0.00180927       0.00012619 </v>
    <v>       0.32920944      -0.00420799      -0.00022585 </v>
    <v>       0.66889924       0.33519319      -0.00003865 </v>
    <v>       0.66842436       0.66853917       0.00019915 </v>
    <v>       0.11300637       0.22660264       0.95316051 </v>
    <v>       0.22505715       0.11524881       0.04806072 </v>
    <v>       0.10873498       0.55084017       0.95190465 </v>
    <v>       0.22009167       0.43975847       0.04694542 </v>
    <v>       0.11234467       0.88943324       0.95052005 </v>
    <v>       0.22265598       0.77876341       0.04944825 </v>
    <v>       0.44247576       0.22396257       0.95220114 </v>
    <v>       0.55740746       0.10920429       0.04776709 </v>
    <v>       0.44323576       0.55145987       0.95211110 </v>
    <v>       0.55179061       0.44262272       0.04806962 </v>
    <v>       0.44849084       0.89182781       0.95189657 </v>
    <v>       0.55829841       0.78158587       0.04802404 </v>
    <v>       0.77920560       0.22038516       0.95308655 </v>
    <v>       0.88661205       0.11318894       0.04681860 </v>
    <v>       0.77681292       0.55492609       0.95075025 </v>
    <v>       0.89004212       0.44135948       0.04799077 </v>
    <v>       0.77460224       0.89021316       0.95190263 </v>
    <v>       0.88746519       0.77690395       0.04935581 </v>
   </varray>
  </structure>
  <varray name="forces" >
   <v>       0.19664402      -0.08720103       0.08632469 </v>
   <v>      -0.13986544      -0.03378658      -0.07282730 </v>
   <v>      -0.00351912       0.15188975      -0.00199279 </v>
   <v>      -0.42271347      -0.03166161      -0.07704959 </v>
   <v>      -0.16454230       0.43086614      -0.00305290 </v>
   <v>       0.48765303      -0.29210697       0.06280652 </v>
   <v>       0.02256946      -0.74799877       0.00219052 </v>
   <v>      -0.12934789       0.34869638       0.02073439 </v>
   <v>       0.16481902       0.25350713       0.00585791 </v>
   <v>      -0.04584852       0.06915959      -0.34700635 </v>
   <v>       0.01275716       0.11836121       0.46259075 </v>
   <v>       0.06912903      -0.15212908      -0.56874750 </v>
   <v>       0.02092336      -0.11066630       0.48939401 </v>
   <v>       0.01048831       0.02492111      -0.87122081 </v>
   <v>      -0.02219568       0.03080442       0.80183506 </v>
   <v>      -0.03845534      -0.01348039      -0.24574603 </v>
   <v>       0.02516079      -0.01235237       0.19771609 </v>
   <v>       0.07256875      -0.05788605      -0.30602271 </v>
   <v>      -0.04149468      -0.06022036       0.40910660 </v>
   <v>      -0.00390717       0.12438409      -0.51424586 </v>
   <v>      -0.02205925       0.09807334       0.43717257 </v>
   <v>       0.07389862       0.01223300      -0.33863453 </v>
   <v>      -0.09587925       0.01547177       0.27517563 </v>
   <v>      -0.03933439      -0.00066902      -0.56290811 </v>
   <v>       0.09674553      -0.00796632       0.48906242 </v>
   <v>      -0.09367046      -0.01990188      -0.57944443 </v>
   <v>       0.00947586      -0.05034121       0.74893174 </v>
  </varray>
  <varray name="stress" >
   <v>     -10.14569535       0.02143167      -0.01399318 </v>
   <v>       0.02143176      -9.85378829       0.03883349 </v>
   <v>      -0.01399306       0.03883361       6.48738932 </v>
  </varray>
  <energy>
   <i name="e_fr_energy">   -189.76447624 </i>
   <i name="e_wo_entrp">   -189.64431769 </i>
   <i name="e_0_energy">     -0.24031710 </i>
  </energy>
  <time name="totalsc">  374.32  375.34</time>
 </calculation>
 <calculation>
  <scstep>
   <time name="dav">   21.48   21.53</time>
   <time name="total">   22.00   22.05</time>
   <energy>
    <i name="alphaZ">     85.81940993 </i>
    <i name="ewald">  42832.49617161 </i>
    <i name="hartreedc"> -48849.23694434 </i>
    <i name="XCdc">   -232.95852948 </i>
    <i name="pawpsdc">   4038.81532611 </i>
    <i name="pawaedc">  -3454.51897441 </i>
    <i name="eentropy">     -0.20362353 </i>
    <i name="bandstr">  -1372.98905306 </i>
    <i name="atom">   6761.44252427 </i>
    <i name="e_fr_energy">   -191.33369289 </i>
    <i name="e_wo_entrp">   -191.13006937 </i>
    <i name="e_0_energy">   -191.23188113 </i>
   </energy>
  </scstep>
  <scstep>
   <time name="dav">   32.10   32.18</time>
   <time name="total">   32.61   32.70</time>
   <energy>
    <i name="e_fr_energy">   -191.17977833 </i>
    <i name="e_wo_entrp">   -190.97034552 </i>
    <i name="e_0_energy">   -191.07506193 </i>
   </energy>
  </scstep>
  <scstep>
   <time name="dav">   30.06   30.13</time>
   <time name="total">   30.57   30.65</time>
   <energy>
    <i name="e_fr_energy">   -191.27849460 </i>
    <i name="e_wo_entrp">   -191.05737659 </i>
    <i name="e_0_energy">   -191.16793560 </i>
   </energy>
  </scstep>
  <scstep>
   <time name="dav">   31.55   31.63</time>
   <time name="total">   32.07   32.16</time>
   <energy>
    <i name="e_fr_energy">   -190.88042871 </i>
    <i name="e_wo_entrp">   -190.67318394 </i>
    <i name="e_0_energy">   -190.77680633 </i>
   </energy>
  </scstep>
  <scstep>
   <time name="dav">   30.06   30.13</time>
   <time name="total">   30.57   30.65</time>
   <energy>
    <i name="e_fr_energy">   -190.80531765 </i>
    <i name="e_wo_entrp">   -190.59491526 </i>
    <i name="e_0_energy">   -190.70011645 </i>
   </energy>
  </scstep>
  <scstep>
   <time name="dav">   30.74   30.81</time>
   <time name="total">   31.25   31.33</time>
   <energy>
    <i name="e_fr_energy">   -190.77228864 </i>
    <i name="e_wo_entrp">   -190.56159382 </i>
    <i name="e_0_energy">   -190.66694123 </i>
   </energy>
  </scstep>
  <scstep>
   <time name="dav">   29.15   29.22</time>
   <time name="total">   29.66   29.74</time>
   <energy>
    <i name="e_fr_energy">   -190.75294152 </i>
    <i name="e_wo_entrp">   -190.54304871 </i>
    <i name="e_0_energy">   -190.64799512 </i>
   </energy>
  </scstep>
  <scstep>
   <time name="dav">   27.60   27.67</time>
   <time name="total">   28.12   28.19</time>
   <energy>
    <i name="e_fr_energy">   -190.74981015 </i>
    <i name="e_wo_entrp">   -190.53986670 </i>
    <i name="e_0_energy">   -190.64483842 </i>
   </energy>
  </scstep>
  <scstep>
   <time name="dav">   27.58   27.65</time>
   <time name="total">   28.09   28.17</time>
   <energy>
    <i name="e_fr_energy">   -190.74958770 </i>
    <i name="e_wo_entrp">   -190.53966304 </i>
    <i name="e_0_energy">   -190.64462537 </i>
   </energy>
  </scstep>
  <scstep>
   <time name="dav">   27.97   28.04</time>
   <time name="total">   28.49   28.57</time>
   <energy>
    <i name="e_fr_energy">   -190.74966420 </i>
    <i name="e_wo_entrp">   -190.53949384 </i>
    <i name="e_0_energy">   -190.64457902 </i>
   </energy>
  </scstep>
  <scstep>
   <time name="dav">   25.48   25.54</time>
   <time name="total">   26.00   26.07</time>
   <energy>
    <i name="e_fr_energy">   -190.74943237 </i>
    <i name="e_wo_entrp">   -190.53952061 </i>
    <i name="e_0_energy">   -190.64447649 </i>
   </energy>
  </scstep>
  <scstep>
   <time name="dav">   20.13   20.18</time>
   <time name="total">   20.16   20.22</time>
   <energy>
    <i name="alphaZ">     85.81940993 </i>
    <i name="ewald">  42832.49617161 </i>
    <i name="hartreedc"> -48820.63041826 </i>
    <i name="XCdc">   -234.28803049 </i>
    <i name="pawpsdc">   4063.76404166 </i>
    <i name="pawaedc">  -3479.65213991 </i>
    <i name="eentropy">     -0.20993951 </i>
    <i name="bandstr">  -1399.49104593 </i>
    <i name="atom">   6761.44252427 </i>
    <i name="e_fr_energy">   -190.74942664 </i>
    <i name="e_wo_entrp">   -190.53948713 </i>
    <i name="e_0_energy">   -190.64445688 </i>
   </energy>
  </scstep>
  <structure>
   <crystal>
    <varray name="basis" >
     <v>       8.48500674       4.89805732       0.00000000 </v>
     <v>      -8.48672277       4.90100203       0.00000000 </v>
     <v>       0.00000000       0.00000000      30.00000000 </v>
    </varray>
    <i name="volume">   2494.60469513 </i>
    <varray name="rec_basis" >
     <v>       0.05893922       0.10206093       0.00000000 </v>
     <v>      -0.05890381       0.10204030       0.00000000 </v>
     <v>       0.00000000       0.00000000       0.03333333 </v>
    </varray>
   </crystal>
   <varray name="positions" >
    <v>       0.66735873      -0.00236002       0.00012840 </v>
    <v>       0.33096171       0.33378503      -0.00006774 </v>
    <v>       1.00233207       0.33525707       0.00001567 </v>
    <v>       0.32954676       0.66822585      -0.00024164 </v>
    <v>       0.00407423       0.67219614      -0.00004840 </v>
    <v>      -0.00016094      -0.00562536       0.00024048 </v>
    <v>       0.32455988      -0.00902024      -0.00019096 </v>
    <v>       0.67053049       0.33792595       0.00001168 </v>
    <v>       0.67066318       0.66942755       0.00018211 </v>
    <v>       0.11333507       0.22734723       0.95207297 </v>
    <v>       0.22584259       0.11624285       0.04943906 </v>
    <v>       0.10789062       0.54941414       0.95030676 </v>
    <v>       0.21937621       0.43881512       0.04834664 </v>
    <v>       0.11225958       0.88942438       0.94821406 </v>
    <v>       0.22264649       0.77879720       0.05159594 </v>
    <v>       0.44203159       0.22417928       0.95128776 </v>
    <v>       0.55756133       0.10881831       0.04857421 </v>
    <v>       0.44284388       0.55056249       0.95107741 </v>
    <v>       0.55083247       0.44221308       0.04935380 </v>
    <v>       0.44958760       0.89262249       0.95039969 </v>
    <v>       0.55877097       0.78257564       0.04934640 </v>
    <v>       0.77980355       0.21996456       0.95199120 </v>
    <v>       0.88628764       0.11374250       0.04775882 </v>
    <v>       0.77691820       0.55522742       0.94910808 </v>
    <v>       0.89074362       0.44103052       0.04942951 </v>
    <v>       0.77418524       0.89076777       0.95027579 </v>
    <v>       0.88743169       0.77665752       0.05139220 </v>
   </varray>
  </structure>
  <varray name="forces" >
   <v>       0.22304423      -0.09806775       0.08290881 </v>
   <v>      -0.09510468       0.02795382      -0.08147218 </v>
   <v>      -0.02970430       0.11162269      -0.00665948 </v>
   <v>      -0.44400914      -0.02273268      -0.04271083 </v>
   <v>      -0.22161752       0.41333533       0.00293393 </v>
   <v>       0.50396848      -0.32283934       0.00823562 </v>
   <v>       0.02081415      -0.74443520       0.03158004 </v>
   <v>      -0.17364406       0.39725049       0.03441304 </v>
   <v>       0.23762642       0.25123806      -0.03106358 </v>
   <v>       0.01262546      -0.05443387      -0.22318525 </v>
   <v>       0.02190137      -0.01562525       0.30460327 </v>
   <v>      -0.01609652      -0.04511058      -0.40040191 </v>
   <v>      -0.04486321      -0.01419300       0.36666836 </v>
   <v>      -0.00191191      -0.02932070      -0.70397012 </v>
   <v>      -0.00548564      -0.04276098       0.61768082 </v>
   <v>       0.03417359      -0.05512835      -0.07668519 </v>
   <v>      -0.04964509      -0.04636935       0.00008579 </v>
   <v>      -0.03615261       0.02273207      -0.14810852 </v>
   <v>      -0.06860280      -0.00465171       0.31304177 </v>
   <v>      -0.03077961       0.02833741      -0.38277249 </v>
   <v>      -0.01133337      -0.00984249       0.26016565 </v>
   <v>       0.04228144       0.03164716      -0.23154768 </v>
   <v>       0.05184039       0.02281054       0.19187013 </v>
   <v>       0.00579799       0.09497247      -0.41291427 </v>
   <v>       0.02435473       0.08398828       0.31953606 </v>
   <v>       0.00513848       0.02679985      -0.39001302 </v>
   <v>       0.04538375      -0.00717690       0.59778124 </v>
  </varray>
  <varray name="stress" >
   <v>      -5.79072831      -0.07900368      -0.04021869 </v>
   <v>      -0.07900382      -5.70909381      -0.05339766 </v>
   <v>      -0.04021872      -0.05339761       4.48885864 </v>
  </varray>
  <energy>
   <i name="e_fr_energy">   -190.74942664 </i>
   <i name="e_wo_entrp">   -190.64445688 </i>
   <i name="e_0_energy">     -0.20993951 </i>
  </energy>
  <time name="totalsc">  381.54  382.54</time>
 </calculation>
 <calculation>
  <scstep>
   <time name="dav">   21.49   21.54</time>
   <time name="total">   22.00   22.05</time>
   <energy>
    <i name="alphaZ">     90.18193527 </i>
    <i name="ewald">  44667.03992979 </i>
    <i name="hartreedc"> -50710.57903251 </i>
    <i name="XCdc">   -231.83421572 </i>
    <i name="pawpsdc">   4063.73553491 </i>
    <i name="pawaedc">  -3479.61827950 </i>
    <i name="eentropy">     -0.19659223 </i>
    <i name="bandstr">  -1352.29298863 </i>
    <i name="atom">   6761.44252427 </i>
    <i name="e_fr_energy">   -192.12118435 </i>
    <i name="e_wo_entrp">   -191.92459213 </i>
    <i name="e_0_energy">   -192.02288824 </i>
   </energy>
  </scstep>
  <scstep>
   <time name="dav">   27.96   28.03</time>
   <time name="total">   28.47   28.54</time>
   <energy>
    <i name="e_fr_energy">   -191.85347643 </i>
    <i name="e_wo_entrp">   -191.65011157 </i>
    <i name="e_0_energy">   -191.75179400 </i>
   </energy>
  </scstep>
  <scstep>
   <time name="dav">   29.41   29.48</time>
   <time name="total">   29.91   29.99</time>
   <energy>
    <i name="e_fr_energy">   -191.98177653 </i>
    <i name="e_wo_entrp">   -191.77777615 </i>
    <i name="e_0_energy">   -191.87977634 </i>
   </energy>
  </scstep>
  <scstep>
   <time name="dav">   28.41   28.48</time>
   <time name="total">   28.92   28.99</time>
   <energy>
    <i name="e_fr_energy">   -191.74785202 </i>
    <i name="e_wo_entrp">   -191.54747369 </i>
    <i name="e_0_energy">   -191.64766285 </i>
   </energy>
  </scstep>
  <scstep>
   <time name="dav">   30.13   30.20</time>
   <time name="total">   30.63   30.71</time>
   <energy>
    <i name="e_fr_energy">   -191.57689901 </i>
    <i name="e_wo_entrp">   -191.37339667 </i>
    <i name="e_0_energy">   -191.47514784 </i>
   </energy>
  </scstep>
  <scstep>
   <time name="dav">   30.24   30.32</time>
   <time name="total">   30.75   30.83</time>
   <energy>
    <i name="e_fr_energy">   -191.43564709 </i>
    <i name="e_wo_entrp">   -191.22982860 </i>
    <i name="e_0_energy">   -191.33273784 </i>
   </energy>
  </scstep>
  <scstep>
   <time name="dav">   30.17   30.24</time>
   <time name="total">   30.68   30.76</time>
   <energy>
    <i name="e_fr_energy">   -191.42791880 </i>
    <i name="e_wo_entrp">   -191.22395406 </i>
    <i name="e_0_energy">   -191.32593643 </i>
   </energy>
  </scstep>
  <scstep>
   <time name="dav">   29.74   29.81</time>
   <time name="total">   30.25   30.33</time>
   <energy>
    <i name="e_fr_energy">   -191.42568230 </i>
    <i name="e_wo_entrp">   -191.22087808 </i>
    <i name="e_0_energy">   -191.32328019 </i>
   </energy>
  </scstep>
  <scstep>
   <time name="dav">   30.56   30.64</time>
   <time name="total">   31.07   31.15</time>
   <energy>
    <i name="e_fr_energy">   -191.41901063 </i>
    <i name="e_wo_entrp">   -191.21419978 </i>
    <i name="e_0_energy">   -191.31660521 </i>
   </energy>
  </scstep>
  <scstep>
   <time name="dav">   27.57   27.64</time>
   <time name="total">   28.08   28.16</time>
   <energy>
    <i name="e_fr_energy">   -191.41931776 </i>
    <i name="e_wo_entrp">   -191.21423843 </i>
    <i name="e_0_energy">   -191.31677810 </i>
   </energy>
  </scstep>
  <scstep>
   <time name="dav">   27.80   27.86</time>
   <time name="total">   28.30   28.38</time>
   <energy>
    <i name="e_fr_energy">   -191.41916808 </i>
    <i name="e_wo_entrp">   -191.21423323 </i>
    <i name="e_0_energy">   -191.31670066 </i>
   </energy>
  </scstep>
  <scstep>
   <time name="dav">   19.29   19.34</time>
   <time name="total">   19.33   19.38</time>
   <energy>
    <i name="alphaZ">     90.18193527 </i>
    <i name="ewald">  44667.03992979 </i>
    <i name="hartreedc"> -50676.60739355 </i>
    <i name="XCdc">   -233.36228101 </i>
    <i name="pawpsdc">   4085.79570845 </i>
    <i name="pawaedc">  -3501.77442963 </i>
    <i name="eentropy">     -0.20501413 </i>
    <i name="bandstr">  -1383.93013082 </i>
    <i name="atom">   6761.44252427 </i>
    <i name="e_fr_energy">   -191.41915136 </i>
    <i name="e_wo_entrp">   -191.21413723 </i>
    <i name="e_0_energy">   -191.31664430 </i>
   </energy>
  </scstep>
  <structure>
   <crystal>
    <varray name="basis" >
     <v>       8.27289528       4.77551060       0.00000000 </v>
     <v>      -8.27899753       4.78605395       0.00000000 </v>
     <v>       0.00000000       0.00000000      30.00000000 </v>
    </varray>
    <i name="volume">   2373.92890602 </i>
    <varray name="rec_basis" >
     <v>       0.06048270       0.10462399       0.00000000 </v>
     <v>      -0.06034946       0.10454688       0.00000000 </v>
     <v>       0.00000000       0.00000000       0.03333333 </v>
    </varray>
   </crystal>
   <varray name="positions" >
    <v>       0.66765082      -0.00519882       0.00047643 </v>
    <v>       0.33067116       0.33477838      -0.00041101 </v>
    <v>       1.00351033       0.33690916      -0.00001185 </v>
    <v>       0.32617409       0.67123137      -0.00042377 </v>
    <v>       0.00767233       0.67901615      -0.00003329 </v>
    <v>      -0.00053241      -0.01337865       0.00028455 </v>
    <v>       0.31548088      -0.01839780      -0.00004470 </v>
    <v>       0.67405090       0.34402386       0.00015107 </v>
    <v>       0.67544556       0.67078572       0.00004336 </v>
    <v>       0.11297575       0.22701967       0.95068162 </v>
    <v>       0.22601868       0.11647490       0.05123543 </v>
    <v>       0.10695956       0.54845197       0.94812053 </v>
    <v>       0.21867071       0.43853143       0.05033530 </v>
    <v>       0.11166312       0.88900796       0.94471475 </v>
    <v>       0.22204559       0.77817061       0.05474094 </v>
    <v>       0.44133864       0.22358565       0.95041891 </v>
    <v>       0.55692916       0.10833184       0.04914299 </v>
    <v>       0.44249799       0.55054279       0.94993307 </v>
    <v>       0.54971969       0.44231245       0.05117004 </v>
    <v>       0.45028978       0.89332682       0.94829030 </v>
    <v>       0.55866713       0.78306965       0.05097073 </v>
    <v>       0.78078757       0.21972316       0.95054604 </v>
    <v>       0.88669565       0.11391337       0.04900432 </v>
    <v>       0.77821825       0.55642941       0.94681600 </v>
    <v>       0.89233432       0.44174994       0.05129852 </v>
    <v>       0.77443222       0.89147471       0.94811205 </v>
    <v>       0.88784699       0.77632874       0.05443755 </v>
   </varray>
  </structure>
  <varray name="forces" >
   <v>       0.29898373      -0.11098306       0.01922416 </v>
   <v>      -0.08629315       0.07568302      -0.01619525 </v>
   <v>      -0.03115628       0.06491834      -0.02162674 </v>
   <v>      -0.30199556      -0.07835979       0.02465790 </v>
   <v>      -0.07590383      -0.06315712       0.03362691 </v>
   <v>       0.14166462      -0.20645202      -0.05549906 </v>
   <v>       0.01075024      -0.28864470      -0.04817156 </v>
   <v>      -0.21822152       0.48988891       0.05965434 </v>
   <v>       0.31493622       0.21211640       0.04782115 </v>
   <v>       0.07346417      -0.15968681       0.07452856 </v>
   <v>       0.08355594      -0.15773453      -0.02082158 </v>
   <v>      -0.14525489       0.07947288      -0.06614718 </v>
   <v>      -0.06804481       0.07188779       0.02135143 </v>
   <v>      -0.00836527      -0.04763498      -0.29295307 </v>
   <v>      -0.00688357      -0.12217921       0.28746103 </v>
   <v>       0.16548848      -0.11513319       0.24433877 </v>
   <v>      -0.18577193      -0.09282449      -0.33787665 </v>
   <v>      -0.16273397       0.16071753       0.11925137 </v>
   <v>      -0.07636674       0.07942221       0.06412132 </v>
   <v>      -0.11574862      -0.05382324      -0.05875006 </v>
   <v>       0.07009384      -0.12190544      -0.06956525 </v>
   <v>      -0.04275528       0.02647619       0.07183803 </v>
   <v>       0.23433364       0.01428726      -0.04485060 </v>
   <v>       0.02944221       0.17364267      -0.22928429 </v>
   <v>      -0.07085272       0.14792195       0.05903814 </v>
   <v>       0.10071392       0.02624011      -0.11054928 </v>
   <v>       0.07292114      -0.00415668       0.24537747 </v>
  </varray>
  <varray name="stress" >
   <v>       0.10553203      -0.28360657       0.18465162 </v>
   <v>      -0.28360671       0.27461576      -0.29785301 </v>
   <v>       0.18465157      -0.29785301      -0.57868648 </v>
  </varray>
  <energy>
   <i name="e_fr_energy">   -191.41915136 </i>
   <i name="e_wo_entrp">   -191.31664430 </i>
   <i name="e_0_energy">     -0.20501413 </i>
  </energy>
  <time name="totalsc">  379.93  380.93</time>
 </calculation>
 <calculation>
  <scstep>
   <time name="dav">   21.47   21.52</time>
   <time name="total">   21.97   22.03</time>
   <energy>
    <i name="alphaZ">     90.05232717 </i>
    <i name="ewald">  44593.67461776 </i>
    <i name="hartreedc"> -50602.42198251 </i>
    <i name="XCdc">   -233.51198281 </i>
    <i name="pawpsdc">   4085.72975799 </i>
    <i name="pawaedc">  -3501.70415099 </i>
    <i name="eentropy">     -0.20876922 </i>
    <i name="bandstr">  -1384.54043935 </i>
    <i name="atom">   6761.44252427 </i>
    <i name="e_fr_energy">   -191.48809767 </i>
    <i name="e_wo_entrp">   -191.27932845 </i>
    <i name="e_0_energy">   -191.38371306 </i>
   </energy>
  </scstep>
  <scstep>
   <time name="dav">   32.85   32.93</time>
   <time name="total">   33.35   33.44</time>
   <energy>
    <i name="e_fr_energy">   -191.55545980 </i>
    <i name="e_wo_entrp">   -191.34168827 </i>
    <i name="e_0_energy">   -191.44857403 </i>
   </energy>
  </scstep>
  <scstep>
   <time name="dav">   30.40   30.47</time>
   <time name="total">   30.90   30.98</time>
   <energy>
    <i name="e_fr_energy">   -191.50132885 </i>
    <i name="e_wo_entrp">   -191.29170750 </i>
    <i name="e_0_energy">   -191.39651818 </i>
   </energy>
  </scstep>
  <scstep>
   <time name="dav">   28.29   28.36</time>
   <time name="total">   28.80   28.88</time>
   <energy>
    <i name="e_fr_energy">   -191.50308974 </i>
    <i name="e_wo_entrp">   -191.29384173 </i>
    <i name="e_0_energy">   -191.39846573 </i>
   </energy>
  </scstep>
  <scstep>
   <time name="dav">   28.23   28.30</time>
   <time name="total">   28.73   28.81</time>
   <energy>
    <i name="e_fr_energy">   -191.49864575 </i>
    <i name="e_wo_entrp">   -191.28874053 </i>
    <i name="e_0_energy">   -191.39369314 </i>
   </energy>
  </scstep>
  <scstep>
   <time name="dav">   26.62   26.69</time>
   <time name="total">   27.13   27.21</time>
   <energy>
    <i name="e_fr_energy">   -191.49851940 </i>
    <i name="e_wo_entrp">   -191.28861916 </i>
    <i name="e_0_energy">   -191.39356928 </i>
   </energy>
  </scstep>
  <scstep>
   <time name="dav">   28.62   28.69</time>
   <time name="total">   29.13   29.21</time>
   <energy>
    <i name="e_fr_energy">   -191.49907853 </i>
    <i name="e_wo_entrp">   -191.28941603 </i>
    <i name="e_0_energy">   -191.39424728 </i>
   </energy>
  </scstep>
  <scstep>
   <time name="dav">   24.46   24.52</time>
   <time name="total">   24.97   25.04</time>
   <energy>
    <i name="e_fr_energy">   -191.49801680 </i>
    <i name="e_wo_entrp">   -191.28813506 </i>
    <i name="e_0_energy">   -191.39307593 </i>
   </energy>
  </scstep>
  <scstep>
   <time name="dav">   16.67   16.71</time>
   <time name="total">   16.70   16.75</time>
   <energy>
    <i name="alphaZ">     90.05232717 </i>
    <i name="ewald">  44593.67461776 </i>
    <i name="hartreedc"> -50604.41268643 </i>
    <i name="XCdc">   -233.44896256 </i>
    <i name="pawpsdc">   4082.97331344 </i>
    <i name="pawaedc">  -3498.90797712 </i>
    <i name="eentropy">     -0.20974645 </i>
    <i name="bandstr">  -1382.66143832 </i>
    <i name="atom">   6761.44252427 </i>
    <i name="e_fr_energy">   -191.49802823 </i>
    <i name="e_wo_entrp">   -191.28828178 </i>
    <i name="e_0_energy">   -191.39315501 </i>
   </energy>
  </scstep>
  <structure>
   <crystal>
    <varray name="basis" >
     <v>       8.27361681       4.77397523       0.00000000 </v>
     <v>      -8.28665069       4.79652234       0.00000000 </v>
     <v>       0.00000000       0.00000000      30.00000000 </v>
    </varray>
    <i name="volume">   2377.34559077 </i>
    <varray name="rec_basis" >
     <v>       0.06052787       0.10457021       0.00000000 </v>
     <v>      -0.06024335       0.10440573       0.00000000 </v>
     <v>       0.00000000       0.00000000       0.03333333 </v>
    </varray>
   </crystal>
   <varray name="positions" >
    <v>       0.66795108      -0.00654584       0.00050087 </v>
    <v>       0.33080210       0.33537917      -0.00043076 </v>
    <v>       1.00372201       0.33728938      -0.00004526 </v>
    <v>       0.32498384       0.67165364      -0.00038217 </v>
    <v>       0.00708845       0.67881149       0.00001908 </v>
    <v>      -0.00113882      -0.01466910       0.00019685 </v>
    <v>       0.31423743      -0.01969644      -0.00012264 </v>
    <v>       0.67578402       0.34695172       0.00024225 </v>
    <v>       0.67730687       0.67091358       0.00012057 </v>
    <v>       0.11240308       0.22602791       0.95082556 </v>
    <v>       0.22547589       0.11545370       0.05116835 </v>
    <v>       0.10695496       0.54927470       0.94805768 </v>
    <v>       0.21884408       0.43908633       0.05033181 </v>
    <v>       0.11141706       0.88880509       0.94431857 </v>
    <v>       0.22143552       0.77760156       0.05513422 </v>
    <v>       0.44125668       0.22255714       0.95082114 </v>
    <v>       0.55595219       0.10841315       0.04859899 </v>
    <v>       0.44283485       0.55179946       0.95014370 </v>
    <v>       0.54991665       0.44292084       0.05123578 </v>
    <v>       0.44967931       0.89337802       0.94823775 </v>
    <v>       0.55826781       0.78225888       0.05082998 </v>
    <v>       0.78077753       0.21998168       0.95068683 </v>
    <v>       0.88742764       0.11331386       0.04890937 </v>
    <v>       0.77913366       0.55717881       0.94649999 </v>
    <v>       0.89283071       0.44266725       0.05135518 </v>
    <v>       0.77484462       0.89130252       0.94797952 </v>
    <v>       0.88802524       0.77610597       0.05476672 </v>
   </varray>
  </structure>
  <varray name="forces" >
   <v>       0.36088354      -0.11430172       0.03135528 </v>
   <v>      -0.09262741       0.04354471      -0.04508145 </v>
   <v>      -0.01616300       0.07274165      -0.04698264 </v>
   <v>      -0.38155924      -0.09252100       0.00886724 </v>
   <v>      -0.07405272      -0.03991742      -0.00036397 </v>
   <v>       0.13732685      -0.22667639      -0.02538766 </v>
   <v>       0.03649104      -0.42516079       0.01389366 </v>
   <v>      -0.25142771       0.55039988       0.03493348 </v>
   <v>       0.35712533       0.24783572       0.01216079 </v>
   <v>       0.04711965      -0.09877805       0.09338466 </v>
   <v>       0.04431085      -0.09516918      -0.05205760 </v>
   <v>      -0.08958563       0.03736816      -0.05281121 </v>
   <v>      -0.04341656       0.03975943       0.01413145 </v>
   <v>       0.00441710      -0.05769872      -0.18577041 </v>
   <v>      -0.03751849      -0.06581749       0.17899750 </v>
   <v>       0.11668258      -0.04737293       0.24946826 </v>
   <v>      -0.13482754      -0.01106535      -0.36878576 </v>
   <v>      -0.11059252       0.12810889       0.16638673 </v>
   <v>      -0.05728146       0.06595862       0.06887399 </v>
   <v>      -0.05601136      -0.03432644      -0.03300206 </v>
   <v>       0.06420693      -0.09312254      -0.08174079 </v>
   <v>      -0.04994034       0.01333909       0.12011911 </v>
   <v>       0.14082787       0.00741708      -0.06620310 </v>
   <v>       0.00250826       0.10945236      -0.23515025 </v>
   <v>      -0.02150695       0.09037788       0.10935826 </v>
   <v>       0.06287961      -0.01524049      -0.11820025 </v>
   <v>       0.04173132       0.01086502       0.20960674 </v>
  </varray>
  <varray name="stress" >
   <v>      -0.07690139      -0.03545110       0.08329796 </v>
   <v>      -0.03545099      -0.17236919      -0.08523424 </v>
   <v>       0.08329799      -0.08523419      -1.18849110 </v>
  </varray>
  <energy>
   <i name="e_fr_energy">   -191.49802823 </i>
   <i name="e_wo_entrp">   -191.39315501 </i>
   <i name="e_0_energy">     -0.20974645 </i>
  </energy>
  <time name="totalsc">  283.54  284.30</time>
 </calculation>
 <calculation>
  <scstep>
   <time name="dav">   21.48   21.53</time>
   <time name="total">   21.99   22.05</time>
   <energy>
    <i name="alphaZ">     90.09501586 </i>
    <i name="ewald">  44613.76022314 </i>
    <i name="hartreedc"> -50624.91946196 </i>
    <i name="XCdc">   -233.41884717 </i>
    <i name="pawpsdc">   4082.80100023 </i>
    <i name="pawaedc">  -3498.73389277 </i>
    <i name="eentropy">     -0.21079058 </i>
    <i name="bandstr">  -1382.36069711 </i>
    <i name="atom">   6761.44252427 </i>
    <i name="e_fr_energy">   -191.54492609 </i>
    <i name="e_wo_entrp">   -191.33413551 </i>
    <i name="e_0_energy">   -191.43953080 </i>
   </energy>
  </scstep>
  <scstep>
   <time name="dav">   33.02   33.10</time>
   <time name="total">   33.52   33.61</time>
   <energy>
    <i name="e_fr_energy">   -191.56158415 </i>
    <i name="e_wo_entrp">   -191.34741823 </i>
    <i name="e_0_energy">   -191.45450119 </i>
   </energy>
  </scstep>
  <scstep>
   <time name="dav">   30.19   30.27</time>
   <time name="total">   30.70   30.78</time>
   <energy>
    <i name="e_fr_energy">   -191.54816943 </i>
    <i name="e_wo_entrp">   -191.33701439 </i>
    <i name="e_0_energy">   -191.44259191 </i>
   </energy>
  </scstep>
  <scstep>
   <time name="dav">   27.64   27.70</time>
   <time name="total">   28.14   28.22</time>
   <energy>
    <i name="e_fr_energy">   -191.54869339 </i>
    <i name="e_wo_entrp">   -191.33769721 </i>
    <i name="e_0_energy">   -191.44319530 </i>
   </energy>
  </scstep>
  <scstep>
   <time name="dav">   27.58   27.65</time>
   <time name="total">   28.09   28.17</time>
   <energy>
    <i name="e_fr_energy">   -191.54712859 </i>
    <i name="e_wo_entrp">   -191.33560428 </i>
    <i name="e_0_energy">   -191.44136644 </i>
   </energy>
  </scstep>
  <scstep>
   <time name="dav">   25.61   25.68</time>
   <time name="total">   25.65   25.72</time>
   <energy>
    <i name="alphaZ">     90.09501586 </i>
    <i name="ewald">  44613.76022314 </i>
    <i name="hartreedc"> -50624.92229370 </i>
    <i name="XCdc">   -233.42310965 </i>
    <i name="pawpsdc">   4083.82327386 </i>
    <i name="pawaedc">  -3499.76864565 </i>
    <i name="eentropy">     -0.21150806 </i>
    <i name="bandstr">  -1382.34255162 </i>
    <i name="atom">   6761.44252427 </i>
    <i name="e_fr_energy">   -191.54707156 </i>
    <i name="e_wo_entrp">   -191.33556350 </i>
[...]
      <set comment="kpoint 31">
       <r>  -17.4862    1.0000 </r>
       <r>  -17.3001    1.0000 </r>
       <r>  -16.8825    1.0000 </r>
       <r>  -16.5160    1.0000 </r>
       <r>  -16.4165    1.0000 </r>
       <r>  -16.3611    1.0000 </r>
       <r>  -16.2669    1.0000 </r>
       <r>  -16.1383    1.0000 </r>
       <r>  -16.0823    1.0000 </r>
       <r>  -16.0559    1.0000 </r>
       <r>  -15.9536    1.0000 </r>
       <r>  -15.8859    1.0000 </r>
       <r>  -15.7861    1.0000 </r>
       <r>  -15.6892    1.0000 </r>
       <r>  -15.6370    1.0000 </r>
       <r>  -15.5863    1.0000 </r>
       <r>  -15.5092    1.0000 </r>
       <r>  -15.4515    1.0000 </r>
       <r>   -9.7610    1.0000 </r>
       <r>   -9.3768    1.0000 </r>
       <r>   -9.3619    1.0000 </r>
       <r>   -8.8991    1.0000 </r>
       <r>   -8.8508    1.0000 </r>
       <r>   -8.6910    1.0000 </r>
       <r>   -8.5647    1.0000 </r>
       <r>   -8.4505    1.0000 </r>
       <r>   -8.3690    1.0000 </r>
       <r>   -8.3377    1.0000 </r>
       <r>   -8.2500    1.0000 </r>
       <r>   -8.2006    1.0000 </r>
       <r>   -8.1447    1.0000 </r>
       <r>   -8.0975    1.0000 </r>
       <r>   -7.9538    1.0000 </r>
       <r>   -7.8747    1.0000 </r>
       <r>   -7.8425    1.0000 </r>
       <r>   -7.5461    1.0000 </r>
       <r>   -7.4775    1.0000 </r>
       <r>   -7.3534    1.0000 </r>
       <r>   -7.2797    1.0000 </r>
       <r>   -7.1812    1.0000 </r>
       <r>   -7.1114    1.0000 </r>
       <r>   -7.0331    1.0000 </r>
       <r>   -7.0021    1.0000 </r>
       <r>   -6.9243    1.0000 </r>
       <r>   -6.8338    1.0000 </r>
       <r>   -6.7971    1.0000 </r>
       <r>   -6.7271    1.0000 </r>
       <r>   -6.6581    1.0000 </r>
       <r>   -6.5748    1.0000 </r>
       <r>   -6.5079    1.0000 </r>
       <r>   -6.4065    1.0000 </r>
       <r>   -6.3009    1.0000 </r>
       <r>   -6.2507    1.0000 </r>
       <r>   -6.1478    1.0000 </r>
       <r>   -6.1139    1.0000 </r>
       <r>   -6.0097    1.0000 </r>
       <r>   -5.9894    1.0000 </r>
       <r>   -5.9493    1.0000 </r>
       <r>   -5.8767    1.0000 </r>
       <r>   -5.8142    1.0000 </r>
       <r>   -5.7728    1.0000 </r>
       <r>   -5.6531    1.0000 </r>
       <r>   -5.6113    1.0000 </r>
       <r>   -5.5141    1.0000 </r>
       <r>   -5.2350    1.0000 </r>
       <r>   -5.1357    1.0000 </r>
       <r>   -5.0504    1.0000 </r>
       <r>   -4.9317    1.0000 </r>
       <r>   -4.8710    1.0000 </r>
       <r>   -4.7149    1.0000 </r>
       <r>   -4.5424    1.0000 </r>
       <r>   -4.4114    1.0000 </r>
       <r>   -4.1942    1.0000 </r>
       <r>   -4.1167    1.0000 </r>
       <r>   -3.9703    1.0000 </r>
       <r>   -3.6588    1.0000 </r>
       <r>   -3.5742    0.9999 </r>
       <r>   -3.4340    0.9968 </r>
       <r>   -3.2715    0.9425 </r>
       <r>   -3.0217    0.4248 </r>
       <r>   -2.8976    0.1428 </r>
       <r>   -2.7827    0.0300 </r>
       <r>   -2.6668    0.0035 </r>
       <r>   -2.5635    0.0003 </r>
       <r>   -2.5204    0.0001 </r>
       <r>   -2.4087    0.0000 </r>
       <r>   -2.3007    0.0000 </r>
       <r>   -2.2475    0.0000 </r>
       <r>   -2.1854    0.0000 </r>
       <r>   -2.0441    0.0000 </r>
       <r>   -1.8166    0.0000 </r>
       <r>   -1.6948    0.0000 </r>
       <r>   -1.6188    0.0000 </r>
       <r>   -1.3816    0.0000 </r>
       <r>   -1.2459    0.0000 </r>
       <r>   -1.1722    0.0000 </r>
       <r>   -1.0850    0.0000 </r>
       <r>   -0.9500    0.0000 </r>
       <r>   -0.8420    0.0000 </r>
       <r>   -0.8021    0.0000 </r>
       <r>   -0.7360    0.0000 </r>
       <r>   -0.6554    0.0000 </r>
       <r>   -0.6217    0.0000 </r>
       <r>   -0.5486    0.0000 </r>
       <r>   -0.4802    0.0000 </r>
       <r>   -0.2739    0.0000 </r>
       <r>   -0.1824    0.0000 </r>
       <r>    0.0038    0.0000 </r>
       <r>    0.1019    0.0000 </r>
       <r>    0.3058    0.0000 </r>
       <r>    0.4981    0.0000 </r>
       <r>    0.6764    0.0000 </r>
       <r>    0.8625    0.0000 </r>
       <r>    1.1447    0.0000 </r>
       <r>    1.2295    0.0000 </r>
       <r>    1.3615    0.0000 </r>
       <r>    1.4275    0.0000 </r>
       <r>    2.1641    0.0000 </r>
       <r>    2.2976    0.0000 </r>
       <r>    2.4217    0.0000 </r>
      </set>
      <set comment="kpoint 32">
       <r>  -17.5148    1.0000 </r>
       <r>  -17.1920    1.0000 </r>
       <r>  -17.0193    1.0000 </r>
       <r>  -16.5041    1.0000 </r>
       <r>  -16.3730    1.0000 </r>
       <r>  -16.3028    1.0000 </r>
       <r>  -16.2288    1.0000 </r>
       <r>  -16.1800    1.0000 </r>
       <r>  -16.1083    1.0000 </r>
       <r>  -16.0407    1.0000 </r>
       <r>  -15.9701    1.0000 </r>
       <r>  -15.9059    1.0000 </r>
       <r>  -15.8248    1.0000 </r>
       <r>  -15.6902    1.0000 </r>
       <r>  -15.6525    1.0000 </r>
       <r>  -15.5740    1.0000 </r>
       <r>  -15.4979    1.0000 </r>
       <r>  -15.4237    1.0000 </r>
       <r>   -9.6792    1.0000 </r>
       <r>   -9.5373    1.0000 </r>
       <r>   -9.4046    1.0000 </r>
       <r>   -8.8889    1.0000 </r>
       <r>   -8.7224    1.0000 </r>
       <r>   -8.5507    1.0000 </r>
       <r>   -8.4848    1.0000 </r>
       <r>   -8.4147    1.0000 </r>
       <r>   -8.3973    1.0000 </r>
       <r>   -8.3508    1.0000 </r>
       <r>   -8.2896    1.0000 </r>
       <r>   -8.2583    1.0000 </r>
       <r>   -8.2022    1.0000 </r>
       <r>   -8.1329    1.0000 </r>
       <r>   -8.0920    1.0000 </r>
       <r>   -7.9168    1.0000 </r>
       <r>   -7.8076    1.0000 </r>
       <r>   -7.4798    1.0000 </r>
       <r>   -7.3981    1.0000 </r>
       <r>   -7.3703    1.0000 </r>
       <r>   -7.3100    1.0000 </r>
       <r>   -7.2048    1.0000 </r>
       <r>   -7.1440    1.0000 </r>
       <r>   -7.0525    1.0000 </r>
       <r>   -6.9826    1.0000 </r>
       <r>   -6.9229    1.0000 </r>
       <r>   -6.8687    1.0000 </r>
       <r>   -6.8065    1.0000 </r>
       <r>   -6.7586    1.0000 </r>
       <r>   -6.6361    1.0000 </r>
       <r>   -6.4988    1.0000 </r>
       <r>   -6.4494    1.0000 </r>
       <r>   -6.4176    1.0000 </r>
       <r>   -6.3745    1.0000 </r>
       <r>   -6.2979    1.0000 </r>
       <r>   -6.2297    1.0000 </r>
       <r>   -6.1242    1.0000 </r>
       <r>   -6.0116    1.0000 </r>
       <r>   -5.9428    1.0000 </r>
       <r>   -5.8793    1.0000 </r>
       <r>   -5.8430    1.0000 </r>
       <r>   -5.7629    1.0000 </r>
       <r>   -5.6806    1.0000 </r>
       <r>   -5.5061    1.0000 </r>
       <r>   -5.4374    1.0000 </r>
       <r>   -5.4153    1.0000 </r>
       <r>   -5.3271    1.0000 </r>
       <r>   -5.2909    1.0000 </r>
       <r>   -5.1576    1.0000 </r>
       <r>   -5.0863    1.0000 </r>
       <r>   -4.9456    1.0000 </r>
       <r>   -4.6865    1.0000 </r>
       <r>   -4.5979    1.0000 </r>
       <r>   -4.4257    1.0000 </r>
       <r>   -4.2288    1.0000 </r>
       <r>   -3.9810    1.0000 </r>
       <r>   -3.9465    1.0000 </r>
       <r>   -3.6502    1.0000 </r>
       <r>   -3.5598    0.9998 </r>
       <r>   -3.4465    0.9976 </r>
       <r>   -3.2641    0.9363 </r>
       <r>   -3.0126    0.3997 </r>
       <r>   -2.8287    0.0600 </r>
       <r>   -2.7549    0.0189 </r>
       <r>   -2.6809    0.0047 </r>
       <r>   -2.6201    0.0012 </r>
       <r>   -2.5177    0.0001 </r>
       <r>   -2.4604    0.0000 </r>
       <r>   -2.3805    0.0000 </r>
       <r>   -2.2954    0.0000 </r>
       <r>   -2.1699    0.0000 </r>
       <r>   -2.0795    0.0000 </r>
       <r>   -1.8230    0.0000 </r>
       <r>   -1.6876    0.0000 </r>
       <r>   -1.4998    0.0000 </r>
       <r>   -1.3876    0.0000 </r>
       <r>   -1.2403    0.0000 </r>
       <r>   -1.1633    0.0000 </r>
       <r>   -1.0720    0.0000 </r>
       <r>   -0.9780    0.0000 </r>
       <r>   -0.8331    0.0000 </r>
       <r>   -0.7994    0.0000 </r>
       <r>   -0.7550    0.0000 </r>
       <r>   -0.7020    0.0000 </r>
       <r>   -0.5861    0.0000 </r>
       <r>   -0.5162    0.0000 </r>
       <r>   -0.3738    0.0000 </r>
       <r>   -0.2822    0.0000 </r>
       <r>   -0.2092    0.0000 </r>
       <r>   -0.0238    0.0000 </r>
       <r>    0.1063    0.0000 </r>
       <r>    0.2224    0.0000 </r>
       <r>    0.4512    0.0000 </r>
       <r>    0.7093    0.0000 </r>
       <r>    0.8847    0.0000 </r>
       <r>    1.1014    0.0000 </r>
       <r>    1.2524    0.0000 </r>
       <r>    1.3984    0.0000 </r>
       <r>    1.4112    0.0000 </r>
       <r>    2.1339    0.0000 </r>
       <r>    2.2698    0.0000 </r>
       <r>    2.5999    0.0000 </r>
      </set>
      <set comment="kpoint 33">
       <r>  -17.5029    1.0000 </r>
       <r>  -17.2621    1.0000 </r>
       <r>  -16.9035    1.0000 </r>
       <r>  -16.4980    1.0000 </r>
       <r>  -16.4567    1.0000 </r>
       <r>  -16.3858    1.0000 </r>
       <r>  -16.2435    1.0000 </r>
       <r>  -16.1346    1.0000 </r>
       <r>  -16.0877    1.0000 </r>
       <r>  -16.0270    1.0000 </r>
       <r>  -15.9443    1.0000 </r>
       <r>  -15.8468    1.0000 </r>
       <r>  -15.8299    1.0000 </r>
       <r>  -15.7251    1.0000 </r>
       <r>  -15.6348    1.0000 </r>
       <r>  -15.5875    1.0000 </r>
       <r>  -15.4763    1.0000 </r>
       <r>  -15.4557    1.0000 </r>
       <r>   -9.7445    1.0000 </r>
       <r>   -9.4330    1.0000 </r>
       <r>   -9.3120    1.0000 </r>
       <r>   -8.9086    1.0000 </r>
       <r>   -8.8099    1.0000 </r>
       <r>   -8.7756    1.0000 </r>
       <r>   -8.5241    1.0000 </r>
       <r>   -8.4733    1.0000 </r>
       <r>   -8.4014    1.0000 </r>
       <r>   -8.2962    1.0000 </r>
       <r>   -8.2701    1.0000 </r>
       <r>   -8.2300    1.0000 </r>
       <r>   -8.1357    1.0000 </r>
       <r>   -8.0811    1.0000 </r>
       <r>   -7.9657    1.0000 </r>
       <r>   -7.9114    1.0000 </r>
       <r>   -7.7103    1.0000 </r>
       <r>   -7.5801    1.0000 </r>
       <r>   -7.5296    1.0000 </r>
       <r>   -7.3895    1.0000 </r>
       <r>   -7.3333    1.0000 </r>
       <r>   -7.1936    1.0000 </r>
       <r>   -7.0965    1.0000 </r>
       <r>   -7.0120    1.0000 </r>
       <r>   -6.9529    1.0000 </r>
       <r>   -6.9015    1.0000 </r>
       <r>   -6.8562    1.0000 </r>
       <r>   -6.8057    1.0000 </r>
       <r>   -6.7094    1.0000 </r>
       <r>   -6.6241    1.0000 </r>
       <r>   -6.5808    1.0000 </r>
       <r>   -6.4499    1.0000 </r>
       <r>   -6.3915    1.0000 </r>
       <r>   -6.3288    1.0000 </r>
       <r>   -6.2815    1.0000 </r>
       <r>   -6.2298    1.0000 </r>
       <r>   -6.0677    1.0000 </r>
       <r>   -5.9971    1.0000 </r>
       <r>   -5.9263    1.0000 </r>
       <r>   -5.8567    1.0000 </r>
       <r>   -5.8219    1.0000 </r>
       <r>   -5.8015    1.0000 </r>
       <r>   -5.7490    1.0000 </r>
       <r>   -5.6694    1.0000 </r>
       <r>   -5.6247    1.0000 </r>
       <r>   -5.5571    1.0000 </r>
       <r>   -5.3079    1.0000 </r>
       <r>   -5.1547    1.0000 </r>
       <r>   -5.0397    1.0000 </r>
       <r>   -4.9374    1.0000 </r>
       <r>   -4.8797    1.0000 </r>
       <r>   -4.7641    1.0000 </r>
       <r>   -4.5724    1.0000 </r>
       <r>   -4.4080    1.0000 </r>
       <r>   -4.3597    1.0000 </r>
       <r>   -3.9702    1.0000 </r>
       <r>   -3.8177    1.0000 </r>
       <r>   -3.6692    1.0000 </r>
       <r>   -3.5469    0.9998 </r>
       <r>   -3.4682    0.9985 </r>
       <r>   -3.2602    0.9328 </r>
       <r>   -3.0158    0.4083 </r>
       <r>   -2.9660    0.2797 </r>
       <r>   -2.7579    0.0199 </r>
       <r>   -2.6380    0.0018 </r>
       <r>   -2.6099    0.0010 </r>
       <r>   -2.5322    0.0001 </r>
       <r>   -2.4383    0.0000 </r>
       <r>   -2.3731    0.0000 </r>
       <r>   -2.3123    0.0000 </r>
       <r>   -2.1842    0.0000 </r>
       <r>   -2.1382    0.0000 </r>
       <r>   -1.8034    0.0000 </r>
       <r>   -1.6916    0.0000 </r>
       <r>   -1.4310    0.0000 </r>
       <r>   -1.3897    0.0000 </r>
       <r>   -1.2278    0.0000 </r>
       <r>   -1.1354    0.0000 </r>
       <r>   -1.0465    0.0000 </r>
       <r>   -0.9698    0.0000 </r>
       <r>   -0.8744    0.0000 </r>
       <r>   -0.7881    0.0000 </r>
       <r>   -0.7236    0.0000 </r>
       <r>   -0.6758    0.0000 </r>
       <r>   -0.6125    0.0000 </r>
       <r>   -0.5576    0.0000 </r>
       <r>   -0.3941    0.0000 </r>
       <r>   -0.3098    0.0000 </r>
       <r>   -0.1956    0.0000 </r>
       <r>   -0.1225    0.0000 </r>
       <r>    0.0598    0.0000 </r>
       <r>    0.2398    0.0000 </r>
       <r>    0.5215    0.0000 </r>
       <r>    0.6868    0.0000 </r>
       <r>    0.9691    0.0000 </r>
       <r>    1.0522    0.0000 </r>
       <r>    1.2789    0.0000 </r>
       <r>    1.4187    0.0000 </r>
       <r>    1.4724    0.0000 </r>
       <r>    2.1683    0.0000 </r>
       <r>    2.3049    0.0000 </r>
       <r>    2.4321    0.0000 </r>
      </set>
      <set comment="kpoint 34">
       <r>  -17.4817    1.0000 </r>
       <r>  -17.3225    1.0000 </r>
       <r>  -16.7316    1.0000 </r>
       <r>  -16.6466    1.0000 </r>
       <r>  -16.4598    1.0000 </r>
       <r>  -16.4341    1.0000 </r>
       <r>  -16.2025    1.0000 </r>
       <r>  -16.1656    1.0000 </r>
       <r>  -16.0762    1.0000 </r>
       <r>  -16.0281    1.0000 </r>
       <r>  -15.9182    1.0000 </r>
       <r>  -15.8178    1.0000 </r>
       <r>  -15.8002    1.0000 </r>
       <r>  -15.7142    1.0000 </r>
       <r>  -15.6721    1.0000 </r>
       <r>  -15.5351    1.0000 </r>
       <r>  -15.5328    1.0000 </r>
       <r>  -15.4631    1.0000 </r>
       <r>   -9.7864    1.0000 </r>
       <r>   -9.3071    1.0000 </r>
       <r>   -9.1526    1.0000 </r>
       <r>   -9.0384    1.0000 </r>
       <r>   -8.9837    1.0000 </r>
       <r>   -8.8404    1.0000 </r>
       <r>   -8.5680    1.0000 </r>
       <r>   -8.4749    1.0000 </r>
       <r>   -8.4042    1.0000 </r>
       <r>   -8.3095    1.0000 </r>
       <r>   -8.2441    1.0000 </r>
       <r>   -8.1923    1.0000 </r>
       <r>   -8.1444    1.0000 </r>
       <r>   -7.9685    1.0000 </r>
       <r>   -7.9058    1.0000 </r>
       <r>   -7.8284    1.0000 </r>
       <r>   -7.7364    1.0000 </r>
       <r>   -7.6354    1.0000 </r>
       <r>   -7.5473    1.0000 </r>
       <r>   -7.3791    1.0000 </r>
       <r>   -7.3326    1.0000 </r>
       <r>   -7.3164    1.0000 </r>
       <r>   -7.1049    1.0000 </r>
       <r>   -7.0040    1.0000 </r>
       <r>   -6.9601    1.0000 </r>
       <r>   -6.8480    1.0000 </r>
       <r>   -6.8297    1.0000 </r>
       <r>   -6.7186    1.0000 </r>
       <r>   -6.6641    1.0000 </r>
       <r>   -6.6261    1.0000 </r>
       <r>   -6.5018    1.0000 </r>
       <r>   -6.4417    1.0000 </r>
       <r>   -6.4060    1.0000 </r>
       <r>   -6.3924    1.0000 </r>
       <r>   -6.2900    1.0000 </r>
       <r>   -6.1965    1.0000 </r>
       <r>   -6.0898    1.0000 </r>
       <r>   -6.0545    1.0000 </r>
       <r>   -5.9898    1.0000 </r>
       <r>   -5.8541    1.0000 </r>
       <r>   -5.7993    1.0000 </r>
       <r>   -5.7765    1.0000 </r>
       <r>   -5.7521    1.0000 </r>
       <r>   -5.7277    1.0000 </r>
       <r>   -5.6597    1.0000 </r>
       <r>   -5.5694    1.0000 </r>
       <r>   -5.5499    1.0000 </r>
       <r>   -4.9888    1.0000 </r>
       <r>   -4.9733    1.0000 </r>
       <r>   -4.8445    1.0000 </r>
       <r>   -4.8244    1.0000 </r>
       <r>   -4.6988    1.0000 </r>
       <r>   -4.6293    1.0000 </r>
       <r>   -4.4837    1.0000 </r>
       <r>   -4.3518    1.0000 </r>
       <r>   -3.9610    1.0000 </r>
       <r>   -3.8227    1.0000 </r>
       <r>   -3.6531    1.0000 </r>
       <r>   -3.5440    0.9998 </r>
       <r>   -3.4733    0.9987 </r>
       <r>   -3.2500    0.9228 </r>
       <r>   -3.0563    0.5219 </r>
       <r>   -3.0129    0.4006 </r>
       <r>   -2.7747    0.0264 </r>
       <r>   -2.6687    0.0036 </r>
       <r>   -2.6104    0.0010 </r>
       <r>   -2.4634    0.0000 </r>
       <r>   -2.4340    0.0000 </r>
       <r>   -2.3454    0.0000 </r>
       <r>   -2.2866    0.0000 </r>
       <r>   -2.2419    0.0000 </r>
       <r>   -2.1534    0.0000 </r>
       <r>   -1.7910    0.0000 </r>
       <r>   -1.6967    0.0000 </r>
       <r>   -1.4168    0.0000 </r>
       <r>   -1.3861    0.0000 </r>
       <r>   -1.2214    0.0000 </r>
       <r>   -1.1206    0.0000 </r>
       <r>   -1.0217    0.0000 </r>
       <r>   -0.9557    0.0000 </r>
       <r>   -0.9186    0.0000 </r>
       <r>   -0.7584    0.0000 </r>
       <r>   -0.6851    0.0000 </r>
       <r>   -0.6608    0.0000 </r>
       <r>   -0.6174    0.0000 </r>
       <r>   -0.5859    0.0000 </r>
       <r>   -0.4744    0.0000 </r>
       <r>   -0.3628    0.0000 </r>
       <r>   -0.2129    0.0000 </r>
       <r>   -0.1127    0.0000 </r>
       <r>    0.0369    0.0000 </r>
       <r>    0.2790    0.0000 </r>
       <r>    0.5666    0.0000 </r>
       <r>    0.6562    0.0000 </r>
       <r>    0.9885    0.0000 </r>
       <r>    1.0706    0.0000 </r>
       <r>    1.2871    0.0000 </r>
       <r>    1.4391    0.0000 </r>
       <r>    1.4990    0.0000 </r>
       <r>    2.2565    0.0000 </r>
       <r>    2.2794    0.0000 </r>
       <r>    2.3958    0.0000 </r>
      </set>
     </set>
    </set>
   </array>
  </eigenvalues>
  <separator name="orbital magnetization" >
   <v name="MAGDIPOLOUT">      0.00000000      0.00000000      0.00000000</v>
  </separator>
 </calculation>
 <structure name="finalpos" >
  <crystal>
   <varray name="basis" >
    <v>       8.27487008       4.77243455       0.00000000 </v>
    <v>      -8.30309675       4.82137375       0.00000000 </v>
    <v>       0.00000000       0.00000000      30.00000000 </v>
   </varray>
   <i name="volume">   2385.66681538 </i>
   <varray name="rec_basis" >
    <v>       0.06062926       0.10441228       0.00000000 </v>
    <v>      -0.06001384       0.10405732       0.00000000 </v>
    <v>       0.00000000       0.00000000       0.03333333 </v>
   </varray>
  </crystal>
  <varray name="positions" >
   <v>       0.66331682      -0.00583872      -0.00022961 </v>
   <v>       0.32727233       0.33580143      -0.00031758 </v>
   <v>       0.99823931       0.33201228       0.00015714 </v>
   <v>       0.33469568       0.67898356      -0.00012783 </v>
   <v>       0.01357952       0.68853592       0.00025603 </v>
   <v>       0.00117456      -0.02109588      -0.00025711 </v>
   <v>       0.31117698      -0.02171451      -0.00050725 </v>
   <v>       0.67279912       0.33068325       0.00045836 </v>
   <v>       0.67676894       0.68412291       0.00038033 </v>
   <v>       0.11066470       0.22331653       0.95104062 </v>
   <v>       0.22375582       0.11224940       0.05123951 </v>
   <v>       0.10803158       0.55150911       0.94963822 </v>
   <v>       0.21930060       0.44073901       0.04972637 </v>
   <v>       0.11160159       0.88700591       0.94251795 </v>
   <v>       0.22243109       0.77797161       0.05572763 </v>
   <v>       0.43997982       0.22121371       0.95110958 </v>
   <v>       0.55253365       0.10490743       0.04944435 </v>
   <v>       0.44409030       0.55378429       0.95039878 </v>
   <v>       0.55075147       0.44464215       0.04949991 </v>
   <v>       0.44927019       0.89468911       0.94723618 </v>
   <v>       0.56024654       0.78646125       0.05253867 </v>
   <v>       0.78027296       0.21835522       0.94957912 </v>
   <v>       0.88856019       0.10960156       0.04783354 </v>
   <v>       0.77867969       0.55679417       0.94948527 </v>
   <v>       0.89439916       0.44530412       0.05045025 </v>
   <v>       0.77679947       0.89326796       0.94729105 </v>
   <v>       0.88782237       0.77491166       0.05543039 </v>
  </varray>
 </structure>
</modeling>
