       N       E                     dE             d eps       ncg     rms          rms(c)
DAV:   1     0.112653907688E+04    0.11265E+04   -0.35979E+04  8160   0.577E+02
DAV:   2     0.116318493783E+01   -0.11254E+04   -0.10819E+04 11040   0.173E+02
DAV:   3    -0.199598122951E+03   -0.20076E+03   -0.19252E+03 10960   0.824E+01
DAV:   4    -0.208952145761E+03   -0.93540E+01   -0.90701E+01 12120   0.262E+01
DAV:   5    -0.209268686241E+03   -0.31654E+00   -0.31566E+00 11160   0.362E+00    0.274E+01
DAV:   6    -0.237335579953E+03   -0.28067E+02   -0.10911E+02 12720   0.604E+01    0.593E+01
DAV:   7    -0.196733636794E+03    0.40602E+02   -0.17839E+02 13360   0.151E+02    0.206E+01
DAV:   8    -0.190345046875E+03    0.63886E+01   -0.20971E+01 11640   0.134E+01    0.140E+01
DAV:   9    -0.188348199537E+03    0.19968E+01   -0.40617E+00 12040   0.633E+00    0.934E+00
DAV:  10    -0.187124923644E+03    0.12233E+01   -0.16221E+00 13320   0.761E+00    0.281E+00
DAV:  11    -0.187115316275E+03    0.96074E-02   -0.61504E-01 12240   0.223E+00    0.295E+00
DAV:  12    -0.187114317827E+03    0.99845E-03   -0.67604E-01 12040   0.352E+00    0.376E+00
DAV:  13    -0.186994077516E+03    0.12024E+00   -0.32259E-01 13200   0.328E+00    0.182E+00
DAV:  14    -0.186959495720E+03    0.34582E-01   -0.78118E-02 12880   0.164E+00    0.551E-01
DAV:  15    -0.186955476198E+03    0.40195E-02   -0.10758E-02 11880   0.360E-01    0.395E-01
DAV:  16    -0.186954627986E+03    0.84821E-03   -0.86409E-03 12760   0.479E-01    0.435E-01
DAV:  17    -0.186953212359E+03    0.14156E-02   -0.42862E-03 12600   0.386E-01    0.221E-01
DAV:  18    -0.186952830599E+03    0.38176E-03   -0.93778E-04 10200   0.155E-01    0.486E-02
DAV:  19    -0.186953641879E+03   -0.81128E-03   -0.10159E-03  9400   0.655E-02    0.549E-02
DAV:  20    -0.186954738471E+03   -0.10966E-02   -0.32207E-04  8160   0.736E-02    0.450E-02
DAV:  21    -0.186956010295E+03   -0.12718E-02   -0.17274E-04  7480   0.512E-02    0.237E-02
DAV:  22    -0.186956457133E+03   -0.44684E-03   -0.59054E-05  6840   0.234E-02    0.208E-02
DAV:  23    -0.186956808835E+03   -0.35170E-03   -0.29441E-05  6120   0.175E-02    0.140E-02
DAV:  24    -0.186957209723E+03   -0.40089E-03   -0.22677E-05  5640   0.143E-02    0.577E-03
DAV:  25    -0.186957572329E+03   -0.36261E-03   -0.14112E-05  6200   0.957E-03    0.398E-03
DAV:  26    -0.186957788317E+03   -0.21599E-03   -0.84335E-06  6800   0.650E-03    0.190E-03
DAV:  27    -0.186957881416E+03   -0.93099E-04   -0.32217E-06  7120   0.449E-03
   1 F= -.18695788E+03 E0= -.18678720E+03  d E =-.186958E+03
       N       E                     dE             d eps       ncg     rms          rms(c)
DAV:   1    -0.187591729093E+03   -0.63394E+00   -0.26801E+02  8160   0.347E+01    0.465E+00
DAV:   2    -0.189620899224E+03   -0.20292E+01   -0.20147E+01 12320   0.158E+01    0.993E+00
DAV:   3    -0.189376958887E+03    0.24394E+00   -0.41867E+00 12240   0.124E+01    0.628E+00
DAV:   4    -0.188844482640E+03    0.53248E+00   -0.62847E-01 12520   0.425E+00    0.183E+00
DAV:   5    -0.188847782158E+03   -0.32995E-02   -0.28274E-01 11320   0.202E+00    0.261E+00
DAV:   6    -0.188900141618E+03   -0.52359E-01   -0.46630E-01 12400   0.379E+00    0.468E+00
DAV:   7    -0.188764485577E+03    0.13566E+00   -0.39987E-01 12480   0.308E+00    0.112E+00
DAV:   8    -0.188749128588E+03    0.15357E-01   -0.49360E-02 10200   0.790E-01    0.548E-01
DAV:   9    -0.188744416725E+03    0.47119E-02   -0.11049E-02 12240   0.330E-01    0.218E-01
DAV:  10    -0.188745448685E+03   -0.10320E-02   -0.44683E-03 13000   0.361E-01    0.437E-01
DAV:  11    -0.188744194698E+03    0.12540E-02   -0.39259E-03 12760   0.360E-01    0.173E-01
DAV:  12    -0.188743924542E+03    0.27016E-03   -0.11012E-03 11640   0.130E-01    0.645E-02
DAV:  13    -0.188743989723E+03   -0.65180E-04   -0.20264E-04  7400   0.520E-02
   2 F= -.18874399E+03 E0= -.18860601E+03  d E =-.178611E+01
       N       E                     dE             d eps       ncg     rms          rms(c)
DAV:   1    -0.190658754628E+03   -0.19148E+01   -0.30981E+01  9080   0.142E+01    0.441E+00
DAV:   2    -0.190587923496E+03    0.70831E-01   -0.27087E+00 11160   0.924E+00    0.708E+00
DAV:   3    -0.190154246654E+03    0.43368E+00   -0.13287E+00 12200   0.853E+00    0.430E+00
DAV:   4    -0.189937029763E+03    0.21722E+00   -0.72174E-01 12760   0.428E+00    0.249E+00
DAV:   5    -0.189898130920E+03    0.38899E-01   -0.36360E-01 12240   0.275E+00    0.249E+00
DAV:   6    -0.189840859988E+03    0.57271E-01   -0.12672E-01 12640   0.217E+00    0.767E-01
DAV:   7    -0.189834218158E+03    0.66418E-02   -0.13777E-02 11440   0.546E-01    0.206E-01
DAV:   8    -0.189834187946E+03    0.30212E-04   -0.25778E-03 11360   0.151E-01    0.139E-01
DAV:   9    -0.189834378211E+03   -0.19026E-03   -0.92714E-04  9560   0.103E-01    0.126E-01
DAV:  10    -0.189834302658E+03    0.75553E-04   -0.51584E-04  9480   0.999E-02
   3 F= -.18983430E+03 E0= -.18971736E+03  d E =-.109031E+01
       N       E                     dE             d eps       ncg     rms          rms(c)
DAV:   1    -0.191429104336E+03   -0.15947E+01   -0.78255E+01  8160   0.202E+01    0.463E+00
DAV:   2    -0.191217586468E+03    0.21152E+00   -0.54070E+00 13280   0.744E+00    0.438E+00
DAV:   3    -0.191441912338E+03   -0.22433E+00   -0.16217E+00 11960   0.907E+00    0.758E+00
DAV:   4    -0.191046367582E+03    0.39554E+00   -0.19080E+00 11720   0.863E+00    0.414E+00
DAV:   5    -0.191031259686E+03    0.15108E-01   -0.86809E-01 11520   0.580E+00    0.366E+00
DAV:   6    -0.190842691559E+03    0.18857E+00   -0.22038E-01 11200   0.308E+00    0.682E-01
DAV:   7    -0.190839490566E+03    0.32010E-02   -0.37870E-02 11360   0.710E-01    0.487E-01
DAV:   8    -0.190837874048E+03    0.16165E-02   -0.10189E-02 11360   0.589E-01    0.462E-01
DAV:   9    -0.190836163400E+03    0.17106E-02   -0.39263E-03 11480   0.428E-01    0.162E-01
DAV:  10    -0.190836409476E+03   -0.24608E-03   -0.12609E-03 11080   0.138E-01    0.103E-01
DAV:  11    -0.190836265243E+03    0.14423E-03   -0.52517E-04  9520   0.904E-02    0.434E-02
DAV:  12    -0.190836265899E+03   -0.65665E-06   -0.10370E-04  7280   0.402E-02
   4 F= -.19083627E+03 E0= -.19073433E+03  d E =-.100196E+01
       N       E                     dE             d eps       ncg     rms          rms(c)
DAV:   1    -0.192202022129E+03   -0.13658E+01   -0.16872E+02  8160   0.290E+01    0.571E+00
DAV:   2    -0.191932000649E+03    0.27002E+00   -0.95721E+00 10840   0.783E+00    0.376E+00
DAV:   3    -0.192226601546E+03   -0.29460E+00   -0.24973E+00 12200   0.947E+00    0.727E+00
DAV:   4    -0.191741831915E+03    0.48477E+00   -0.16488E+00 12160   0.945E+00    0.382E+00
DAV:   5    -0.191546483302E+03    0.19535E+00   -0.45532E-01 11240   0.400E+00    0.160E+00
DAV:   6    -0.191542235469E+03    0.42478E-02   -0.20166E-01 12560   0.309E+00    0.173E+00
DAV:   7    -0.191511807487E+03    0.30428E-01   -0.67313E-02 12400   0.179E+00    0.469E-01
DAV:   8    -0.191510461721E+03    0.13458E-02   -0.14272E-02 11960   0.725E-01    0.542E-01
DAV:   9    -0.191507927424E+03    0.25343E-02   -0.70044E-03 11600   0.552E-01    0.183E-01
DAV:  10    -0.191508004377E+03   -0.76953E-04   -0.21789E-03 11440   0.159E-01    0.765E-02
DAV:  11    -0.191507947710E+03    0.56666E-04   -0.41497E-04 10360   0.789E-02
   5 F= -.19150795E+03 E0= -.19140609E+03  d E =-.671682E+00
       N       E                     dE             d eps       ncg     rms          rms(c)
DAV:   1    -0.191571633149E+03   -0.63629E-01   -0.61772E+00  8160   0.523E+00    0.692E-01
DAV:   2    -0.191642635897E+03   -0.71003E-01   -0.30574E-01 12840   0.315E+00    0.230E+00
DAV:   3    -0.191584574365E+03    0.58062E-01   -0.10620E-01 12640   0.243E+00    0.369E-01
DAV:   4    -0.191586211719E+03   -0.16374E-02   -0.13142E-02 11680   0.644E-01    0.635E-01
DAV:   5    -0.191582931153E+03    0.32806E-02   -0.97814E-03 11400   0.610E-01    0.231E-01
DAV:   6    -0.191582687559E+03    0.24359E-03   -0.22354E-03 10520   0.218E-01    0.128E-01
DAV:   7    -0.191582403122E+03    0.28444E-03   -0.96279E-04 10400   0.112E-01    0.415E-02
DAV:   8    -0.191582443386E+03   -0.40264E-04   -0.21010E-04  6800   0.847E-02
   6 F= -.19158244E+03 E0= -.19147772E+03  d E =-.744957E-01
       N       E                     dE             d eps       ncg     rms          rms(c)
DAV:   1    -0.191649318639E+03   -0.66916E-01   -0.70799E+00  8160   0.558E+00    0.733E-01
DAV:   2    -0.191728867288E+03   -0.79549E-01   -0.29247E-01 13400   0.328E+00    0.257E+00
DAV:   3    -0.191658185372E+03    0.70682E-01   -0.13510E-01 12440   0.265E+00    0.461E-01
DAV:   4    -0.191662017773E+03   -0.38324E-02   -0.23252E-02 11680   0.879E-01    0.853E-01
DAV:   5    -0.191655802312E+03    0.62155E-02   -0.15283E-02 11520   0.739E-01    0.204E-01
DAV:   6    -0.191655528421E+03    0.27389E-03   -0.22234E-03 10280   0.196E-01    0.113E-01
DAV:   7    -0.191655341035E+03    0.18739E-03   -0.86125E-04 10080   0.111E-01    0.592E-02
DAV:   8    -0.191655365295E+03   -0.24259E-04   -0.30852E-04  8160   0.110E-01
   7 F= -.19165537E+03 E0= -.19154872E+03  d E =-.729219E-01
       N       E                     dE             d eps       ncg     rms          rms(c)
DAV:   1    -0.191698457705E+03   -0.43117E-01   -0.27319E+00  8160   0.349E+00    0.463E-01
DAV:   2    -0.191728027814E+03   -0.29570E-01   -0.11418E-01 13440   0.203E+00    0.157E+00
DAV:   3    -0.191701871953E+03    0.26156E-01   -0.50015E-02 12280   0.161E+00    0.313E-01
DAV:   4    -0.191703783836E+03   -0.19119E-02   -0.11074E-02 11520   0.609E-01    0.583E-01
DAV:   5    -0.191700803115E+03    0.29807E-02   -0.68877E-03 11080   0.494E-01    0.124E-01
DAV:   6    -0.191700801140E+03    0.19750E-05   -0.10694E-03  9960   0.148E-01    0.107E-01
DAV:   7    -0.191701067510E+03   -0.26637E-03   -0.14611E-03 10480   0.247E-01    0.205E-01
DAV:   8    -0.191700634908E+03    0.43260E-03   -0.77054E-04  8360   0.180E-01    0.196E-02
DAV:   9    -0.191700654114E+03   -0.19206E-04   -0.41631E-05  5760   0.244E-02
   8 F= -.19170065E+03 E0= -.19159344E+03  d E =-.452888E-01
       N       E                     dE             d eps       ncg     rms          rms(c)
DAV:   1    -0.191783027025E+03   -0.82392E-01   -0.12483E+01  8160   0.744E+00    0.884E-01
DAV:   2    -0.191882760203E+03   -0.99733E-01   -0.42515E-01 13240   0.364E+00    0.290E+00
DAV:   3    -0.191801863738E+03    0.80896E-01   -0.20044E-01 12280   0.303E+00    0.784E-01
DAV:   4    -0.191805874884E+03   -0.40111E-02   -0.47535E-02 11720   0.128E+00    0.110E+00
DAV:   5    -0.191794891857E+03    0.10983E-01   -0.25225E-02 11920   0.955E-01    0.256E-01
DAV:   6    -0.191794777537E+03    0.11432E-03   -0.48017E-03 11080   0.330E-01    0.256E-01
DAV:   7    -0.191795866282E+03   -0.10887E-02   -0.69126E-03 11560   0.550E-01    0.429E-01
DAV:   8    -0.191793956674E+03    0.19096E-02   -0.32904E-03 10000   0.375E-01    0.391E-02
DAV:   9    -0.191793985565E+03   -0.28891E-04   -0.16090E-04  5720   0.463E-02
   9 F= -.19179399E+03 E0= -.19168739E+03  d E =-.933315E-01
       N       E                     dE             d eps       ncg     rms          rms(c)
DAV:   1    -0.191851767300E+03   -0.57811E-01   -0.57233E+00  8160   0.512E+00    0.699E-01
DAV:   2    -0.191906348756E+03   -0.54581E-01   -0.24839E-01 13360   0.280E+00    0.223E+00
DAV:   3    -0.191860597307E+03    0.45751E-01   -0.11232E-01 12240   0.226E+00    0.634E-01
DAV:   4    -0.191864043900E+03   -0.34466E-02   -0.33329E-02 10840   0.111E+00    0.942E-01
DAV:   5    -0.191855651486E+03    0.83924E-02   -0.18019E-02 11280   0.813E-01    0.200E-01
DAV:   6    -0.191855541375E+03    0.11011E-03   -0.36721E-03 10120   0.270E-01    0.197E-01
DAV:   7    -0.191855953328E+03   -0.41195E-03   -0.36497E-03 10880   0.405E-01    0.300E-01
DAV:   8    -0.191855017807E+03    0.93552E-03   -0.15948E-03  9640   0.264E-01    0.329E-02
DAV:   9    -0.191855028180E+03   -0.10373E-04   -0.93231E-05  5680   0.355E-02
  10 F= -.19185503E+03 E0= -.19174890E+03  d E =-.610426E-01
       N       E                     dE             d eps       ncg     rms          rms(c)
DAV:   1    -0.191911221656E+03   -0.56204E-01   -0.70063E+01  8160   0.178E+01    0.196E+00
DAV:   2    -0.192308877497E+03   -0.39766E+00   -0.23758E+00 13160   0.725E+00    0.595E+00
DAV:   3    -0.192069292267E+03    0.23959E+00   -0.11420E+00 12080   0.624E+00    0.226E+00
DAV:   4    -0.192057030441E+03    0.12262E-01   -0.22648E-01 11200   0.336E+00    0.216E+00
DAV:   5    -0.192001718355E+03    0.55312E-01   -0.89044E-02 12080   0.214E+00    0.595E-01
DAV:   6    -0.191999365150E+03    0.23532E-02   -0.28602E-02 11400   0.636E-01    0.379E-01
DAV:   7    -0.191996991085E+03    0.23741E-02   -0.10446E-02 11520   0.501E-01    0.330E-01
DAV:   8    -0.191996323969E+03    0.66712E-03   -0.42864E-03 11280   0.438E-01    0.195E-01
DAV:   9    -0.191995910359E+03    0.41361E-03   -0.10742E-03 10200   0.185E-01    0.677E-02
DAV:  10    -0.191995821344E+03    0.89015E-04   -0.36147E-04  9280   0.629E-02
  11 F= -.19199582E+03 E0= -.19189338E+03  d E =-.140793E+00
       N       E                     dE             d eps       ncg     rms          rms(c)
DAV:   1    -0.191970762962E+03    0.25147E-01   -0.97821E+00  8160   0.654E+00    0.636E-01
DAV:   2    -0.192005699140E+03   -0.34936E-01   -0.21373E-01 12520   0.190E+00    0.155E+00
DAV:   3    -0.191980053408E+03    0.25646E-01   -0.55447E-02 11880   0.173E+00    0.653E-01
DAV:   4    -0.191981690742E+03   -0.16373E-02   -0.24894E-02 12280   0.926E-01    0.779E-01
DAV:   5    -0.191976252630E+03    0.54381E-02   -0.13456E-02 12120   0.813E-01    0.250E-01
DAV:   6    -0.191975575315E+03    0.67731E-03   -0.31485E-03 11440   0.277E-01    0.113E-01
DAV:   7    -0.191975447622E+03    0.12769E-03   -0.96620E-04 11400   0.143E-01    0.934E-02
DAV:   8    -0.191975420025E+03    0.27597E-04   -0.49569E-04  9320   0.152E-01
  12 F= -.19197542E+03 E0= -.19187118E+03  d E =0.204013E-01
       N       E                     dE             d eps       ncg     rms          rms(c)
DAV:   1    -0.192002874786E+03   -0.27427E-01   -0.32642E+00  8160   0.386E+00    0.424E-01
DAV:   2    -0.192016522783E+03   -0.13648E-01   -0.11104E-01 13160   0.137E+00    0.935E-01
DAV:   3    -0.192009732117E+03    0.67907E-02   -0.26704E-02 12000   0.112E+00    0.477E-01
DAV:   4    -0.192010360697E+03   -0.62858E-03   -0.11290E-02 10960   0.701E-01    0.566E-01
DAV:   5    -0.192007063286E+03    0.32974E-02   -0.59718E-03 11400   0.554E-01    0.135E-01
DAV:   6    -0.192007120516E+03   -0.57230E-04   -0.16815E-03 10880   0.177E-01    0.118E-01
DAV:   7    -0.192007097789E+03    0.22727E-04   -0.10544E-03 10800   0.211E-01    0.154E-01
DAV:   8    -0.192006857434E+03    0.24036E-03   -0.44938E-04  8520   0.147E-01    0.256E-02
DAV:   9    -0.192006859782E+03   -0.23480E-05   -0.37707E-05  5840   0.264E-02
  13 F= -.19200686E+03 E0= -.19190381E+03  d E =-.314398E-01
       N       E                     dE             d eps       ncg     rms          rms(c)
DAV:   1    -0.192033543961E+03   -0.26687E-01   -0.28593E+00  8160   0.365E+00    0.430E-01
DAV:   2    -0.192040960724E+03   -0.74168E-02   -0.10601E-01 12400   0.105E+00    0.515E-01
DAV:   3    -0.192041328941E+03   -0.36822E-03   -0.15417E-02 12040   0.968E-01    0.559E-01
DAV:   4    -0.192038824793E+03    0.25041E-02   -0.83988E-03 11760   0.649E-01    0.419E-01
DAV:   5    -0.192037617585E+03    0.12072E-02   -0.50771E-03 11800   0.490E-01    0.226E-01
DAV:   6    -0.192037476648E+03    0.14094E-03   -0.24178E-03 11040   0.284E-01    0.189E-01
DAV:   7    -0.192037215997E+03    0.26065E-03   -0.12962E-03  9520   0.255E-01    0.115E-01
DAV:   8    -0.192037067142E+03    0.14885E-03   -0.27395E-04  7320   0.107E-01    0.210E-02
DAV:   9    -0.192037065402E+03    0.17408E-05   -0.50691E-05  7280   0.247E-02
  14 F= -.19203707E+03 E0= -.19193547E+03  d E =-.302056E-01
       N       E                     dE             d eps       ncg     rms          rms(c)
DAV:   1    -0.192058133936E+03   -0.21067E-01   -0.16869E+00  8160   0.279E+00    0.311E-01
DAV:   2    -0.192062521500E+03   -0.43876E-02   -0.59378E-02 11360   0.690E-01    0.376E-01
DAV:   3    -0.192064257552E+03   -0.17361E-02   -0.11486E-02 11960   0.729E-01    0.601E-01
DAV:   4    -0.192060973449E+03    0.32841E-02   -0.58608E-03 10880   0.491E-01    0.131E-01
DAV:   5    -0.192061421398E+03   -0.44795E-03   -0.16188E-03 10120   0.329E-01    0.228E-01
DAV:   6    -0.192060831600E+03    0.58980E-03   -0.99669E-04 10760   0.243E-01    0.573E-02
DAV:   7    -0.192060828524E+03    0.30756E-05   -0.18592E-04  6040   0.959E-02
  15 F= -.19206083E+03 E0= -.19196106E+03  d E =-.237631E-01
       N       E                     dE             d eps       ncg     rms          rms(c)
DAV:   1    -0.192056264898E+03    0.45667E-02   -0.66090E-02  8160   0.555E-01    0.587E-02
DAV:   2    -0.192056425870E+03   -0.16097E-03   -0.21877E-03 11160   0.132E-01    0.705E-02
DAV:   3    -0.192056447068E+03   -0.21198E-04   -0.38657E-04  9960   0.139E-01
  16 F= -.19205645E+03 E0= -.19195661E+03  d E =0.438146E-02
       N       E                     dE             d eps       ncg     rms          rms(c)
DAV:   1    -0.192067946610E+03   -0.11521E-01   -0.48871E-01  8160   0.150E+00    0.197E-01
DAV:   2    -0.192072665709E+03   -0.47191E-02   -0.25135E-02 12440   0.755E-01    0.622E-01
DAV:   3    -0.192069041259E+03    0.36244E-02   -0.85131E-03 11880   0.641E-01    0.151E-01
DAV:   4    -0.192069112048E+03   -0.70788E-04   -0.11355E-03  9600   0.238E-01    0.176E-01
DAV:   5    -0.192068826460E+03    0.28559E-03   -0.80323E-04  9640   0.218E-01    0.855E-02
DAV:   6    -0.192068914227E+03   -0.87767E-04   -0.45427E-04  8520   0.154E-01
  17 F= -.19206891E+03 E0= -.19197089E+03  d E =-.124672E-01
       N       E                     dE             d eps       ncg     rms          rms(c)
DAV:   1    -0.192055028246E+03    0.13798E-01   -0.64862E-01  8160   0.176E+00    0.258E-01
DAV:   2    -0.192063493345E+03   -0.84651E-02   -0.36504E-02 12360   0.103E+00    0.896E-01
DAV:   3    -0.192055934087E+03    0.75593E-02   -0.15760E-02 12440   0.881E-01    0.179E-01
DAV:   4    -0.192056323799E+03   -0.38971E-03   -0.24370E-03 10440   0.337E-01    0.284E-01
DAV:   5    -0.192055607784E+03    0.71601E-03   -0.20075E-03 10200   0.318E-01    0.126E-01
DAV:   6    -0.192055660121E+03   -0.52337E-04   -0.78642E-04  8840   0.200E-01
  18 F= -.19205566E+03 E0= -.19195427E+03  d E =0.132541E-01
       N       E                     dE             d eps       ncg     rms          rms(c)
DAV:   1    -0.192080601361E+03   -0.24994E-01   -0.23046E+00  8160   0.328E+00    0.392E-01
DAV:   2    -0.192090609897E+03   -0.10009E-01   -0.88183E-02 11680   0.106E+00    0.808E-01
DAV:   3    -0.192086178148E+03    0.44317E-02   -0.22227E-02 12040   0.103E+00    0.468E-01
DAV:   4    -0.192083950682E+03    0.22275E-02   -0.43293E-03 10920   0.395E-01    0.162E-01
DAV:   5    -0.192084645448E+03   -0.69477E-03   -0.33439E-03 11240   0.401E-01    0.320E-01
DAV:   6    -0.192083799024E+03    0.84642E-03   -0.25489E-03 11200   0.353E-01    0.119E-01
DAV:   7    -0.192083613197E+03    0.18583E-03   -0.57392E-04 10000   0.142E-01    0.657E-02
DAV:   8    -0.192083566968E+03    0.46229E-04   -0.99515E-05  8120   0.893E-02
  19 F= -.19208357E+03 E0= -.19198578E+03  d E =-.279068E-01
       N       E                     dE             d eps       ncg     rms          rms(c)
DAV:   1    -0.192090596622E+03   -0.69834E-02   -0.16584E-01  8160   0.873E-01    0.119E-01
DAV:   2    -0.192092115695E+03   -0.15191E-02   -0.79488E-03 11200   0.429E-01    0.353E-01
DAV:   3    -0.192090916201E+03    0.11995E-02   -0.26909E-03 11400   0.374E-01    0.967E-02
DAV:   4    -0.192090986661E+03   -0.70460E-04   -0.48185E-04  8320   0.165E-01
  20 F= -.19209099E+03 E0= -.19199333E+03  d E =-.741969E-02
       N       E                     dE             d eps       ncg     rms          rms(c)
DAV:   1    -0.192105005109E+03   -0.14089E-01   -0.61310E-01  8160   0.169E+00    0.243E-01
DAV:   2    -0.192110360054E+03   -0.53549E-02   -0.27818E-02 11560   0.795E-01    0.677E-01
DAV:   3    -0.192105906969E+03    0.44531E-02   -0.93955E-03 12120   0.714E-01    0.194E-01
DAV:   4    -0.192106077478E+03   -0.17051E-03   -0.17515E-03  9800   0.318E-01    0.230E-01
DAV:   5    -0.192105489843E+03    0.58763E-03   -0.11381E-03 10400   0.289E-01    0.839E-02
DAV:   6    -0.192105630858E+03   -0.14101E-03   -0.61281E-04  9200   0.165E-01    0.136E-01
DAV:   7    -0.192105451485E+03    0.17937E-03   -0.48229E-04  8640   0.167E-01    0.491E-02
DAV:   8    -0.192105425474E+03    0.26011E-04   -0.53505E-05  5880   0.476E-02
  21 F= -.19210543E+03 E0= -.19200955E+03  d E =-.144388E-01
       N       E                     dE             d eps       ncg     rms          rms(c)
DAV:   1    -0.192134637955E+03   -0.29186E-01   -0.35446E+00  8160   0.406E+00    0.575E-01
DAV:   2    -0.192173099862E+03   -0.38462E-01   -0.17819E-01 11360   0.214E+00    0.172E+00
DAV:   3    -0.192141071055E+03    0.32029E-01   -0.49209E-02 12000   0.179E+00    0.390E-01
DAV:   4    -0.192141888344E+03   -0.81729E-03   -0.76329E-03 10800   0.702E-01    0.493E-01
DAV:   5    -0.192139010588E+03    0.28778E-02   -0.45626E-03 12000   0.604E-01    0.152E-01
DAV:   6    -0.192139067590E+03   -0.57001E-04   -0.17222E-03 11960   0.215E-01    0.138E-01
DAV:   7    -0.192138897966E+03    0.16962E-03   -0.92999E-04 11160   0.215E-01    0.119E-01
DAV:   8    -0.192138749982E+03    0.14798E-03   -0.30893E-04  7640   0.127E-01    0.273E-02
DAV:   9    -0.192138746176E+03    0.38059E-05   -0.44423E-05  6080   0.298E-02
  22 F= -.19213875E+03 E0= -.19204581E+03  d E =-.333207E-01
       N       E                     dE             d eps       ncg     rms          rms(c)
DAV:   1    -0.192155353363E+03   -0.16603E-01   -0.10449E+00  8160   0.223E+00    0.310E-01
DAV:   2    -0.192160961368E+03   -0.56080E-02   -0.41697E-02 11120   0.830E-01    0.655E-01
DAV:   3    -0.192157112086E+03    0.38493E-02   -0.11689E-02 11960   0.834E-01    0.333E-01
DAV:   4    -0.192156566039E+03    0.54605E-03   -0.29917E-03 11160   0.397E-01    0.252E-01
DAV:   5    -0.192155875283E+03    0.69076E-03   -0.16041E-03 10560   0.353E-01    0.119E-01
DAV:   6    -0.192155752849E+03    0.12243E-03   -0.66899E-04 10480   0.150E-01    0.621E-02
DAV:   7    -0.192155748005E+03    0.48447E-05   -0.32878E-04  9200   0.118E-01
  23 F= -.19215575E+03 E0= -.19206376E+03  d E =-.170018E-01
       N       E                     dE             d eps       ncg     rms          rms(c)
DAV:   1    -0.192166622648E+03   -0.10870E-01   -0.52994E-01  8160   0.157E+00    0.233E-01
DAV:   2    -0.192171619529E+03   -0.49969E-02   -0.26038E-02 10640   0.872E-01    0.617E-01
DAV:   3    -0.192167451491E+03    0.41680E-02   -0.73565E-03 12000   0.698E-01    0.176E-01
DAV:   4    -0.192167752719E+03   -0.30123E-03   -0.16913E-03  9880   0.343E-01    0.249E-01
DAV:   5    -0.192167080390E+03    0.67233E-03   -0.10279E-03  9640   0.281E-01    0.701E-02
DAV:   6    -0.192167066818E+03    0.13572E-04   -0.27063E-04  7400   0.845E-02
  24 F= -.19216707E+03 E0= -.19207619E+03  d E =-.113188E-01
       N       E                     dE             d eps       ncg     rms          rms(c)
DAV:   1    -0.192176057828E+03   -0.89774E-02   -0.39023E-01  8160   0.135E+00    0.191E-01
DAV:   2    -0.192179117423E+03   -0.30596E-02   -0.18026E-02 11200   0.597E-01    0.478E-01
DAV:   3    -0.192176852977E+03    0.22644E-02   -0.52042E-03 12200   0.568E-01    0.171E-01
DAV:   4    -0.192176810271E+03    0.42706E-04   -0.90113E-04  9960   0.232E-01
  25 F= -.19217681E+03 E0= -.19208603E+03  d E =-.974345E-02
       N       E                     dE             d eps       ncg     rms          rms(c)
DAV:   1    -0.192174975935E+03    0.18770E-02   -0.18950E-02  9840   0.377E-01    0.712E-02
DAV:   2    -0.192175896972E+03   -0.92104E-03   -0.20159E-03 12000   0.358E-01    0.278E-01
DAV:   3    -0.192174980797E+03    0.91618E-03   -0.10614E-03  9800   0.291E-01    0.455E-02
DAV:   4    -0.192174982269E+03   -0.14720E-05   -0.65905E-05  5560   0.674E-02
  26 F= -.19217498E+03 E0= -.19208477E+03  d E =0.182800E-02
       N       E                     dE             d eps       ncg     rms          rms(c)
DAV:   1    -0.192185523056E+03   -0.10542E-01   -0.65253E-01  8160   0.174E+00    0.242E-01
DAV:   2    -0.192191112309E+03   -0.55893E-02   -0.29089E-02 10640   0.877E-01    0.633E-01
DAV:   3    -0.192186635872E+03    0.44764E-02   -0.78846E-03 11960   0.729E-01    0.183E-01
DAV:   4    -0.192186970507E+03   -0.33464E-03   -0.17185E-03 10000   0.352E-01    0.256E-01
DAV:   5    -0.192186230334E+03    0.74017E-03   -0.10247E-03  9840   0.286E-01    0.632E-02
DAV:   6    -0.192186246892E+03   -0.16557E-04   -0.28291E-04  7720   0.783E-02
  27 F= -.19218625E+03 E0= -.19209703E+03  d E =-.112646E-01
       N       E                     dE             d eps       ncg     rms          rms(c)
DAV:   1    -0.192190744802E+03   -0.45145E-02   -0.11452E-01  8160   0.747E-01    0.122E-01
DAV:   2    -0.192191638190E+03   -0.89339E-03   -0.60592E-03 11440   0.355E-01    0.282E-01
DAV:   3    -0.192190889639E+03    0.74855E-03   -0.21112E-03 10960   0.359E-01    0.115E-01
DAV:   4    -0.192190775803E+03    0.11384E-03   -0.30915E-04  8640   0.120E-01    0.676E-02
DAV:   5    -0.192190767461E+03    0.83419E-05   -0.21776E-04  8920   0.130E-01
  28 F= -.19219077E+03 E0= -.19210184E+03  d E =-.452057E-02
       N       E                     dE             d eps       ncg     rms          rms(c)
DAV:   1    -0.192200978693E+03   -0.10203E-01   -0.88813E-01  8160   0.202E+00    0.259E-01
DAV:   2    -0.192206163697E+03   -0.51850E-02   -0.36283E-02 11120   0.814E-01    0.575E-01
DAV:   3    -0.192203009004E+03    0.31547E-02   -0.78035E-03 12080   0.717E-01    0.239E-01
DAV:   4    -0.192202892908E+03    0.11610E-03   -0.16424E-03 10120   0.342E-01    0.223E-01
DAV:   5    -0.192202341164E+03    0.55174E-03   -0.91838E-04 10120   0.282E-01    0.758E-02
DAV:   6    -0.192202366887E+03   -0.25723E-04   -0.36044E-04  8720   0.109E-01
  29 F= -.19220237E+03 E0= -.19211440E+03  d E =-.115994E-01
       N       E                     dE             d eps       ncg     rms          rms(c)
DAV:   1    -0.192215644338E+03   -0.13303E-01   -0.48583E+00  8160   0.473E+00    0.593E-01
DAV:   2    -0.192242235683E+03   -0.26591E-01   -0.20330E-01 11480   0.177E+00    0.116E+00
DAV:   3    -0.192228413252E+03    0.13822E-01   -0.37291E-02 11840   0.159E+00    0.559E-01
DAV:   4    -0.192228154471E+03    0.25878E-03   -0.95857E-03 11960   0.829E-01    0.562E-01
DAV:   5    -0.192224674417E+03    0.34801E-02   -0.50380E-03 10840   0.667E-01    0.163E-01
DAV:   6    -0.192224612771E+03    0.61646E-04   -0.18022E-03 12040   0.186E-01    0.111E-01
DAV:   7    -0.192224498055E+03    0.11472E-03   -0.60085E-04 10840   0.179E-01    0.902E-02
DAV:   8    -0.192224417806E+03    0.80248E-04   -0.21748E-04  7360   0.111E-01
  30 F= -.19222442E+03 E0= -.19213884E+03  d E =-.220509E-01
       N       E                     dE             d eps       ncg     rms          rms(c)
DAV:   1    -0.192227129593E+03   -0.26315E-02   -0.65682E+00  8160   0.550E+00    0.667E-01
DAV:   2    -0.192258667162E+03   -0.31538E-01   -0.27095E-01 11640   0.189E+00    0.118E+00
DAV:   3    -0.192245806443E+03    0.12861E-01   -0.44427E-02 11600   0.173E+00    0.690E-01
DAV:   4    -0.192243675861E+03    0.21306E-02   -0.11780E-02 12240   0.919E-01    0.568E-01
DAV:   5    -0.192240222018E+03    0.34538E-02   -0.57282E-03 10960   0.718E-01    0.201E-01
DAV:   6    -0.192240022558E+03    0.19946E-03   -0.23004E-03 12040   0.219E-01    0.982E-02
DAV:   7    -0.192239789333E+03    0.23322E-03   -0.58560E-04 11880   0.953E-02    0.329E-02
DAV:   8    -0.192239796813E+03   -0.74803E-05   -0.10437E-04  6520   0.673E-02
  31 F= -.19223980E+03 E0= -.19215694E+03  d E =-.153790E-01
       N       E                     dE             d eps       ncg     rms          rms(c)
DAV:   1    -0.192241576426E+03   -0.17871E-02   -0.16746E-01  8160   0.872E-01    0.103E-01
DAV:   2    -0.192242402256E+03   -0.82583E-03   -0.74822E-03 10000   0.313E-01    0.195E-01
DAV:   3    -0.192242102003E+03    0.30025E-03   -0.12322E-03 10520   0.280E-01    0.107E-01
DAV:   4    -0.192241990409E+03    0.11159E-03   -0.18392E-04  7160   0.107E-01    0.450E-02
DAV:   5    -0.192242024012E+03   -0.33602E-04   -0.12524E-04  7240   0.101E-01
  32 F= -.19224202E+03 E0= -.19215935E+03  d E =-.222720E-02
       N       E                     dE             d eps       ncg     rms          rms(c)
DAV:   1    -0.192243537237E+03   -0.15468E-02   -0.18299E-01  8160   0.914E-01    0.110E-01
DAV:   2    -0.192244114868E+03   -0.57763E-03   -0.80393E-03 10080   0.253E-01    0.990E-02
DAV:   3    -0.192244304576E+03   -0.18971E-03   -0.10118E-03 12200   0.250E-01    0.169E-01
DAV:   4    -0.192243987707E+03    0.31687E-03   -0.49267E-04  8720   0.186E-01    0.424E-02
DAV:   5    -0.192244013595E+03   -0.25888E-04   -0.10374E-04  5960   0.857E-02
  33 F= -.19224401E+03 E0= -.19216137E+03  d E =-.198958E-02
       N       E                     dE             d eps       ncg     rms          rms(c)
DAV:   1    -0.192244667581E+03   -0.67987E-03   -0.24825E-02  8160   0.350E-01    0.685E-02
DAV:   2    -0.192245065898E+03   -0.39832E-03   -0.17889E-03 10680   0.241E-01    0.186E-01
DAV:   3    -0.192244669257E+03    0.39664E-03   -0.70493E-04 10000   0.223E-01    0.523E-02
DAV:   4    -0.192244665533E+03    0.37239E-05   -0.10904E-04  5880   0.836E-02
  34 F= -.19224467E+03 E0= -.19216205E+03  d E =-.651938E-03
       N       E                     dE             d eps       ncg     rms          rms(c)
DAV:   1    -0.192246321747E+03   -0.16525E-02   -0.86031E-01  8160   0.199E+00    0.238E-01
DAV:   2    -0.192248884965E+03   -0.25632E-02   -0.34991E-02 11040   0.551E-01    0.256E-01
DAV:   3    -0.192249549062E+03   -0.66410E-03   -0.48726E-03 12680   0.559E-01    0.369E-01
DAV:   4    -0.192248075750E+03    0.14733E-02   -0.19525E-03 10560   0.377E-01    0.981E-02
DAV:   5    -0.192248219742E+03   -0.14399E-03   -0.67933E-04 10200   0.208E-01    0.142E-01
DAV:   6    -0.192248086096E+03    0.13365E-03   -0.70246E-04  9400   0.218E-01    0.878E-02
DAV:   7    -0.192248003348E+03    0.82748E-04   -0.24216E-04  7800   0.117E-01
  35 F= -.19224800E+03 E0= -.19216519E+03  d E =-.333782E-02
       N       E                     dE             d eps       ncg     rms          rms(c)
DAV:   1    -0.192248418602E+03   -0.33251E-03   -0.38438E-02  8160   0.429E-01    0.649E-02
DAV:   2    -0.192248637020E+03   -0.21842E-03   -0.23501E-03 11400   0.201E-01    0.105E-01
DAV:   3    -0.192248530949E+03    0.10607E-03   -0.32548E-04  9080   0.162E-01    0.492E-02
DAV:   4    -0.192248505843E+03    0.25106E-04   -0.72693E-05  6160   0.716E-02
  36 F= -.19224851E+03 E0= -.19216593E+03  d E =-.502494E-03
