<?xml version="1.0" encoding="ISO-8859-1"?>
<modeling>
 <generator>
  <i name="program" type="string">vasp </i>
  <i name="version" type="string">5.4.1  </i>
  <i name="subversion" type="string">05Feb16 (build Jul 05 2020 17:13:04) complex                          parallel </i>
  <i name="platform" type="string">IFC91_ompi </i>
  <i name="date" type="string">2024 09 01 </i>
  <i name="time" type="string">19:56:52 </i>
 </generator>
 <incar>
  <i type="int" name="ISTART">     0</i>
  <i type="string" name="PREC">normal</i>
  <i type="string" name="ALGO"> Normal</i>
  <i type="int" name="ISPIN">     1</i>
  <i type="int" name="ICHARG">     2</i>
  <i type="int" name="IBRION">     1</i>
  <i type="int" name="NSW">   100</i>
  <i type="int" name="ISIF">     3</i>
  <i type="int" name="ISYM">     0</i>
  <i name="SYMPREC">      0.00000001</i>
  <i name="POTIM">      0.50000000</i>
  <i type="logical" name="LREAL"> F  </i>
  <i type="logical" name="LPLANE"> F  </i>
  <i type="int" name="ISMEAR">     0</i>
  <i type="logical" name="LWAVE"> F  </i>
  <i type="logical" name="LCHARG"> F  </i>
  <v type="int" name="KPOINT_BSE">    -1     0     0     0</v>
 </incar>
 <kpoints>
  <generation param="Gamma">
   <v type="int" name="divisions">       8        8        1 </v>
   <v name="usershift">      0.00000000       0.00000000       0.00000000 </v>
   <v name="genvec1">      0.12500000       0.00000000       0.00000000 </v>
   <v name="genvec2">     -0.00000000       0.12500000       0.00000000 </v>
   <v name="genvec3">      0.00000000       0.00000000       1.00000000 </v>
   <v name="shift">      0.00000000       0.00000000       0.00000000 </v>
  </generation>
  <varray name="kpointlist" >
   <v>       0.00000000       0.00000000       0.00000000 </v>
   <v>       0.12500000       0.00000000       0.00000000 </v>
   <v>       0.25000000       0.00000000       0.00000000 </v>
   <v>       0.37500000       0.00000000       0.00000000 </v>
   <v>       0.50000000       0.00000000       0.00000000 </v>
   <v>       0.00000000       0.12500000       0.00000000 </v>
   <v>       0.12500000       0.12500000       0.00000000 </v>
   <v>       0.25000000       0.12500000       0.00000000 </v>
   <v>       0.37500000       0.12500000       0.00000000 </v>
   <v>       0.50000000       0.12500000       0.00000000 </v>
   <v>      -0.37500000       0.12500000       0.00000000 </v>
   <v>      -0.25000000       0.12500000       0.00000000 </v>
   <v>      -0.12500000       0.12500000       0.00000000 </v>
   <v>       0.00000000       0.25000000       0.00000000 </v>
   <v>       0.12500000       0.25000000       0.00000000 </v>
   <v>       0.25000000       0.25000000       0.00000000 </v>
   <v>       0.37500000       0.25000000       0.00000000 </v>
   <v>       0.50000000       0.25000000       0.00000000 </v>
   <v>      -0.37500000       0.25000000       0.00000000 </v>
   <v>      -0.25000000       0.25000000       0.00000000 </v>
   <v>      -0.12500000       0.25000000       0.00000000 </v>
   <v>      -0.00000000       0.37500000       0.00000000 </v>
   <v>       0.12500000       0.37500000       0.00000000 </v>
   <v>       0.25000000       0.37500000       0.00000000 </v>
   <v>       0.37500000       0.37500000       0.00000000 </v>
   <v>       0.50000000       0.37500000       0.00000000 </v>
   <v>      -0.37500000       0.37500000       0.00000000 </v>
   <v>      -0.25000000       0.37500000       0.00000000 </v>
   <v>      -0.12500000       0.37500000       0.00000000 </v>
   <v>       0.00000000       0.50000000       0.00000000 </v>
   <v>       0.12500000       0.50000000       0.00000000 </v>
   <v>       0.25000000       0.50000000       0.00000000 </v>
   <v>       0.37500000       0.50000000       0.00000000 </v>
   <v>       0.50000000       0.50000000       0.00000000 </v>
  </varray>
  <varray name="weights" >
   <v>       0.01562500 </v>
   <v>       0.03125000 </v>
   <v>       0.03125000 </v>
   <v>       0.03125000 </v>
   <v>       0.01562500 </v>
   <v>       0.03125000 </v>
   <v>       0.03125000 </v>
   <v>       0.03125000 </v>
   <v>       0.03125000 </v>
   <v>       0.03125000 </v>
   <v>       0.03125000 </v>
   <v>       0.03125000 </v>
   <v>       0.03125000 </v>
   <v>       0.03125000 </v>
   <v>       0.03125000 </v>
   <v>       0.03125000 </v>
   <v>       0.03125000 </v>
   <v>       0.03125000 </v>
   <v>       0.03125000 </v>
   <v>       0.03125000 </v>
   <v>       0.03125000 </v>
   <v>       0.03125000 </v>
   <v>       0.03125000 </v>
   <v>       0.03125000 </v>
   <v>       0.03125000 </v>
   <v>       0.03125000 </v>
   <v>       0.03125000 </v>
   <v>       0.03125000 </v>
   <v>       0.03125000 </v>
   <v>       0.01562500 </v>
   <v>       0.03125000 </v>
   <v>       0.03125000 </v>
   <v>       0.03125000 </v>
   <v>       0.01562500 </v>
  </varray>
 </kpoints>
 <parameters>
  <separator name="general" >
   <i type="string" name="SYSTEM">unknown system</i>
   <i type="logical" name="LCOMPAT"> F  </i>
  </separator>
  <separator name="electronic" >
   <i type="string" name="PREC">normal</i>
   <i name="ENMAX">    280.00000000</i>
   <i name="ENAUG">    373.43800000</i>
   <i name="EDIFF">      0.00010000</i>
   <i type="int" name="IALGO">    38</i>
   <i type="int" name="IWAVPR">    11</i>
   <i type="int" name="NBANDS">   120</i>
   <i name="NELECT">    159.00000000</i>
   <i type="int" name="TURBO">     0</i>
   <i type="int" name="IRESTART">     0</i>
   <i type="int" name="NREBOOT">     0</i>
   <i type="int" name="NMIN">     0</i>
   <i name="EREF">      0.00000000</i>
   <separator name="electronic smearing" >
    <i type="int" name="ISMEAR">     0</i>
    <i name="SIGMA">      0.20000000</i>
    <i name="KSPACING">      0.50000000</i>
    <i type="logical" name="KGAMMA"> T  </i>
   </separator>
   <separator name="electronic projectors" >
    <i type="logical" name="LREAL"> F  </i>
    <v name="ROPT">      0.00000000      0.00000000      0.00000000      0.00000000</v>
    <i type="int" name="LMAXPAW">  -100</i>
    <i type="int" name="LMAXMIX">     2</i>
    <i type="logical" name="NLSPLINE"> F  </i>
   </separator>
   <separator name="electronic startup" >
    <i type="int" name="ISTART">     0</i>
    <i type="int" name="ICHARG">     2</i>
    <i type="int" name="INIWAV">     1</i>
   </separator>
   <separator name="electronic spin" >
    <i type="int" name="ISPIN">     1</i>
    <i type="logical" name="LNONCOLLINEAR"> F  </i>
    <v name="MAGMOM">      1.00000000      1.00000000      1.00000000      1.00000000      1.00000000      1.00000000      1.00000000      1.00000000      1.00000000      1.00000000      1.00000000      1.00000000      1.00000000      1.00000000      1.00000000      1.00000000      1.00000000      1.00000000      1.00000000      1.00000000
      1.00000000      1.00000000      1.00000000      1.00000000      1.00000000      1.00000000      1.00000000</v>
    <i name="NUPDOWN">     -1.00000000</i>
    <i type="logical" name="LSORBIT"> F  </i>
    <v name="SAXIS">      0.00000000      0.00000000      1.00000000</v>
    <i type="logical" name="LSPIRAL"> F  </i>
    <v name="QSPIRAL">      0.00000000      0.00000000      0.00000000</v>
    <i type="logical" name="LZEROZ"> F  </i>
   </separator>
   <separator name="electronic exchange-correlation" >
    <i type="logical" name="LASPH"> F  </i>
    <i type="logical" name="LMETAGGA"> F  </i>
   </separator>
   <separator name="electronic convergence" >
    <i type="int" name="NELM">    60</i>
    <i type="int" name="NELMDL">    -5</i>
    <i type="int" name="NELMIN">     2</i>
    <i name="ENINI">    280.00000000</i>
    <separator name="electronic convergence detail" >
     <i type="logical" name="LDIAG"> T  </i>
     <i type="logical" name="LSUBROT"> F  </i>
     <i name="WEIMIN">      0.00100000</i>
     <i name="EBREAK">      0.00000021</i>
     <i name="DEPER">      0.30000000</i>
     <i type="int" name="NRMM">     4</i>
     <i name="TIME">      0.40000000</i>
    </separator>
   </separator>
   <separator name="electronic mixer" >
    <i name="AMIX">      0.40000000</i>
    <i name="BMIX">      1.00000000</i>
    <i name="AMIN">      0.10000000</i>
    <i name="AMIX_MAG">      1.60000000</i>
    <i name="BMIX_MAG">      1.00000000</i>
    <separator name="electronic mixer details" >
     <i type="int" name="IMIX">     4</i>
     <i type="logical" name="MIXFIRST"> F  </i>
     <i type="int" name="MAXMIX">   -45</i>
     <i name="WC">    100.00000000</i>
     <i type="int" name="INIMIX">     1</i>
     <i type="int" name="MIXPRE">     1</i>
     <i type="int" name="MREMOVE">     5</i>
    </separator>
   </separator>
   <separator name="electronic dipolcorrection" >
    <i type="logical" name="LDIPOL"> F  </i>
    <i type="logical" name="LMONO"> F  </i>
    <i type="int" name="IDIPOL">     0</i>
    <i name="EPSILON">      1.00000000</i>
    <v name="DIPOL">   -100.00000000   -100.00000000   -100.00000000</v>
    <i name="EFIELD">      0.00000000</i>
   </separator>
  </separator>
  <separator name="grids" >
   <i type="int" name="NGX">    42</i>
   <i type="int" name="NGY">    42</i>
   <i type="int" name="NGZ">   126</i>
   <i type="int" name="NGXF">    84</i>
   <i type="int" name="NGYF">    84</i>
   <i type="int" name="NGZF">   252</i>
   <i type="logical" name="ADDGRID"> F  </i>
  </separator>
  <separator name="ionic" >
   <i type="int" name="NSW">   100</i>
   <i type="int" name="IBRION">     1</i>
   <i type="int" name="ISIF">     3</i>
   <i name="PSTRESS">      0.00000000</i>
   <i name="EDIFFG">      0.00100000</i>
   <i type="int" name="NFREE">     0</i>
   <i name="POTIM">      0.50000000</i>
   <i name="SMASS">     -3.00000000</i>
   <i name="SCALEE">      1.00000000</i>
  </separator>
  <separator name="ionic md" >
   <i name="TEBEG">      0.00010000</i>
   <i name="TEEND">      0.00010000</i>
   <i type="int" name="NBLOCK">     1</i>
   <i type="int" name="KBLOCK">   100</i>
   <i type="int" name="NPACO">   256</i>
   <i name="APACO">     16.00000000</i>
  </separator>
  <separator name="symmetry" >
   <i type="int" name="ISYM">     0</i>
   <i name="SYMPREC">      0.00000001</i>
  </separator>
  <separator name="dos" >
   <i type="logical" name="LORBIT"> F  </i>
   <v name="RWIGS">     -1.00000000     -1.00000000     -1.00000000     -1.00000000</v>
   <i type="int" name="NEDOS">   301</i>
   <i name="EMIN">     10.00000000</i>
   <i name="EMAX">    -10.00000000</i>
   <i name="EFERMI">      0.00000000</i>
  </separator>
  <separator name="writing" >
   <i type="int" name="NWRITE">     2</i>
   <i type="logical" name="LWAVE"> F  </i>
   <i type="logical" name="LCHARG"> F  </i>
   <i type="logical" name="LPARD"> F  </i>
   <i type="logical" name="LVTOT"> F  </i>
   <i type="logical" name="LVHAR"> F  </i>
   <i type="logical" name="LELF"> F  </i>
   <i type="logical" name="LOPTICS"> F  </i>
   <v name="STM">      0.00000000      0.00000000      0.00000000      0.00000000      0.00000000      0.00000000      0.00000000</v>
  </separator>
  <separator name="performance" >
   <i type="int" name="NPAR">    40</i>
   <i type="int" name="NSIM">     4</i>
   <i type="int" name="NBLK">    -1</i>
   <i type="logical" name="LPLANE"> F  </i>
   <i type="logical" name="LSCALAPACK"> T  </i>
   <i type="logical" name="LSCAAWARE"> F  </i>
   <i type="logical" name="LSCALU"> F  </i>
   <i type="logical" name="LASYNC"> F  </i>
   <i type="logical" name="LORBITALREAL"> F  </i>
  </separator>
  <separator name="miscellaneous" >
   <i type="int" name="IDIOT">     3</i>
   <i type="logical" name="LMUSIC"> F  </i>
   <v name="POMASS">     50.94100000     95.94000000    183.85000000     32.06600000</v>
   <v name="DARWINR">      0.00000000      0.00000000      0.00000000      0.00000000</v>
   <v name="DARWINV">      1.00000000      1.00000000      1.00000000      1.00000000</v>
   <i type="logical" name="LCORR"> T  </i>
  </separator>
  <i type="logical" name="GGA_COMPAT"> T  </i>
  <i type="logical" name="LBERRY"> F  </i>
  <i type="int" name="ICORELEVEL">     0</i>
  <i type="logical" name="LDAU"> F  </i>
  <i type="int" name="I_CONSTRAINED_M">     0</i>
  <separator name="electronic exchange-correlation" >
   <i type="string" name="GGA">--</i>
   <i type="int" name="VOSKOWN">     0</i>
   <i type="logical" name="LHFCALC"> F  </i>
   <i type="string" name="PRECFOCK"></i>
   <i type="logical" name="LSYMGRAD"> F  </i>
   <i type="logical" name="LHFONE"> F  </i>
   <i type="logical" name="LRHFCALC"> F  </i>
   <i type="logical" name="LTHOMAS"> F  </i>
   <i type="logical" name="LMODELHF"> F  </i>
   <i name="ENCUT4O">     -1.00000000</i>
   <i type="int" name="EXXOEP">     0</i>
   <i type="int" name="FOURORBIT">     0</i>
   <i name="AEXX">      0.00000000</i>
   <i name="HFALPHA">      0.00000000</i>
   <i name="MCALPHA">      0.00000000</i>
   <i name="ALDAX">      1.00000000</i>
   <i name="AGGAX">      1.00000000</i>
   <i name="ALDAC">      1.00000000</i>
   <i name="AGGAC">      1.00000000</i>
   <i type="int" name="NKREDX">     1</i>
   <i type="int" name="NKREDY">     1</i>
   <i type="int" name="NKREDZ">     1</i>
   <i type="logical" name="SHIFTRED"> F  </i>
   <i type="logical" name="ODDONLY"> F  </i>
   <i type="logical" name="EVENONLY"> F  </i>
   <i type="int" name="LMAXFOCK">     0</i>
   <i type="int" name="NMAXFOCKAE">     0</i>
   <i type="logical" name="LFOCKAEDFT"> F  </i>
   <i name="HFSCREEN">      0.00000000</i>
   <i name="HFSCREENC">      0.00000000</i>
   <i type="int" name="NBANDSGWLOW">     0</i>
  </separator>
  <separator name="vdW DFT" >
   <i type="logical" name="LUSE_VDW"> F  </i>
   <i name="Zab_VDW">     -0.84910000</i>
   <i name="PARAM1">      0.12340000</i>
   <i name="PARAM2">      1.00000000</i>
   <i name="PARAM3">      0.00000000</i>
  </separator>
  <separator name="model GW" >
   <i type="int" name="MODEL_GW">     0</i>
   <i name="MODEL_EPS0">     58.26239943</i>
   <i name="MODEL_ALPHA">      1.00000000</i>
  </separator>
  <separator name="linear response parameters" >
   <i type="logical" name="LEPSILON"> F  </i>
   <i type="logical" name="LRPA"> F  </i>
   <i type="logical" name="LNABLA"> F  </i>
   <i type="logical" name="LVEL"> F  </i>
   <i type="int" name="KINTER">     0</i>
   <i name="CSHIFT">      0.10000000</i>
   <i name="OMEGAMAX">     -1.00000000</i>
   <i name="DEG_THRESHOLD">      0.00200000</i>
  </separator>
  <separator name="orbital magnetization" >
   <i type="logical" name="NUCIND"> F  </i>
   <v name="MAGPOS">      0.00000000      0.00000000      0.00000000</v>
   <i type="logical" name="LNICSALL"> T  </i>
   <i type="logical" name="ORBITALMAG"> F  </i>
   <i type="logical" name="LMAGBLOCH"> F  </i>
   <i type="logical" name="LCHIMAG"> F  </i>
   <i type="logical" name="LGAUGE"> T  </i>
   <i type="int" name="MAGATOM">     0</i>
   <v name="MAGDIPOL">      0.00000000      0.00000000      0.00000000</v>
   <v name="AVECCONST">      0.00000000      0.00000000      0.00000000</v>
  </separator>
  <separator name="response functions" >
   <i type="logical" name="LADDER"> F  </i>
   <i type="logical" name="LFXC"> F  </i>
   <i type="logical" name="LHARTREE"> T  </i>
   <i type="int" name="IBSE">     0</i>
   <v type="int" name="KPOINT">    -1     0     0     0</v>
   <i type="logical" name="LTCTE"> F  </i>
   <i type="logical" name="LTETE"> F  </i>
   <i type="logical" name="LTRIPLET"> F  </i>
   <i type="logical" name="LFXCEPS"> F  </i>
   <i type="logical" name="LFXHEG"> F  </i>
   <i type="int" name="NATURALO">     0</i>
   <i type="logical" name="L2ORDER"> F  </i>
   <i type="logical" name="LUSEW"> F  </i>
   <i name="ENCUTGW">     -2.00000000</i>
   <i name="ENCUTGWSOFT">     -2.00000000</i>
   <i name="ENCUTLF">     -1.00000000</i>
   <i type="int" name="LMAXMP2">    -1</i>
   <i name="SCISSOR">      0.00000000</i>
   <i type="int" name="NOMEGA">     0</i>
   <i type="int" name="NOMEGAR">     0</i>
   <i type="int" name="NBANDSGW">    -1</i>
   <i type="int" name="NBANDSO">    -1</i>
   <i type="int" name="NBANDSV">    -1</i>
   <i type="int" name="NELM">     1</i>
   <i type="int" name="NELMHF">     1</i>
   <i type="int" name="DIM">     3</i>
   <i type="int" name="ANTIRES">     0</i>
   <i name="OMEGAMAX">    -30.00000000</i>
   <i name="OMEGAMIN">    -30.00000000</i>
   <i name="OMEGATL">   -200.00000000</i>
   <i type="int" name="OMEGAGRID">     0</i>
   <i name="CSHIFT">     -0.10000000</i>
   <i type="logical" name="SELFENERGY"> F  </i>
   <i type="logical" name="LSPECTRAL"> F  </i>
   <i type="logical" name="LSPECTRALGW"> F  </i>
   <i type="logical" name="LSINGLES"> F  </i>
   <i type="logical" name="LFERMIGW"> F  </i>
   <i type="logical" name="ODDONLYGW"> F  </i>
   <i type="logical" name="EVENONLYGW"> F  </i>
   <i type="int" name="NKREDLFX">     1</i>
   <i type="int" name="NKREDLFY">     1</i>
   <i type="int" name="NKREDLFZ">     1</i>
   <i type="int" name="MAXMEM">  1800</i>
   <i type="int" name="TELESCOPE">     0</i>
   <i type="int" name="TAUPAR">     1</i>
   <i type="int" name="OMEGAPAR">    -1</i>
   <i name="LAMBDA">      1.00000000</i>
  </separator>
  <separator name="External order field" >
   <i name="OFIELD_KAPPA">      0.00000000</i>
   <v name="OFIELD_K">      0.00000000      0.00000000      0.00000000</v>
   <i name="OFIELD_Q6_NEAR">      0.00000000</i>
   <i name="OFIELD_Q6_FAR">      0.00000000</i>
   <i name="OFIELD_A">      0.00000000</i>
  </separator>
 </parameters>
 <atominfo>
  <atoms>      27 </atoms>
  <types>       4 </types>
  <array name="atoms" >
   <dimension dim="1">ion</dimension>
   <field type="string">element</field>
   <field type="int">atomtype</field>
   <set>
    <rc><c>V </c><c>   1</c></rc>
    <rc><c>V </c><c>   1</c></rc>
    <rc><c>V </c><c>   1</c></rc>
    <rc><c>Mo</c><c>   2</c></rc>
    <rc><c>Mo</c><c>   2</c></rc>
    <rc><c>Mo</c><c>   2</c></rc>
    <rc><c>W </c><c>   3</c></rc>
    <rc><c>W </c><c>   3</c></rc>
    <rc><c>W </c><c>   3</c></rc>
    <rc><c>S </c><c>   4</c></rc>
    <rc><c>S </c><c>   4</c></rc>
    <rc><c>S </c><c>   4</c></rc>
    <rc><c>S </c><c>   4</c></rc>
    <rc><c>S </c><c>   4</c></rc>
    <rc><c>S </c><c>   4</c></rc>
    <rc><c>S </c><c>   4</c></rc>
    <rc><c>S </c><c>   4</c></rc>
    <rc><c>S </c><c>   4</c></rc>
    <rc><c>S </c><c>   4</c></rc>
    <rc><c>S </c><c>   4</c></rc>
    <rc><c>S </c><c>   4</c></rc>
    <rc><c>S </c><c>   4</c></rc>
    <rc><c>S </c><c>   4</c></rc>
    <rc><c>S </c><c>   4</c></rc>
    <rc><c>S </c><c>   4</c></rc>
    <rc><c>S </c><c>   4</c></rc>
    <rc><c>S </c><c>   4</c></rc>
   </set>
  </array>
  <array name="atomtypes" >
   <dimension dim="1">type</dimension>
   <field type="int">atomspertype</field>
   <field type="string">element</field>
   <field>mass</field>
   <field>valence</field>
   <field type="string">pseudopotential</field>
   <set>
    <rc><c>   3</c><c>V </c><c>     50.94100000</c><c>      5.00000000</c><c> PAW_PBE V 08Apr2002                    </c></rc>
    <rc><c>   3</c><c>Mo</c><c>     95.94000000</c><c>      6.00000000</c><c> PAW_PBE Mo 08Apr2002                   </c></rc>
    <rc><c>   3</c><c>W </c><c>    183.85000000</c><c>      6.00000000</c><c> PAW_PBE W 08Apr2002                    </c></rc>
    <rc><c>  18</c><c>S </c><c>     32.06600000</c><c>      6.00000000</c><c>  PAW_PBE S 17Jan2003                   </c></rc>
   </set>
  </array>
 </atominfo>
 <structure name="initialpos" >
  <crystal>
   <varray name="basis" >
    <v>       8.66999996       5.03999989       0.00000000 </v>
    <v>      -8.66999982       5.04000013       0.00000000 </v>
    <v>       0.00000000       0.00000000      30.00000000 </v>
   </varray>
   <i name="volume">   2621.80797419 </i>
   <varray name="rec_basis" >
    <v>       0.05767013       0.09920635       0.00000000 </v>
    <v>      -0.05767013       0.09920635       0.00000000 </v>
    <v>       0.00000000       0.00000000       0.03333333 </v>
   </varray>
  </crystal>
  <varray name="positions" >
   <v>       0.33333334       0.00000000       0.00000000 </v>
   <v>       0.00000000       0.66666669       0.00000000 </v>
   <v>       0.66666669       0.66666669       0.00000000 </v>
   <v>       0.66666669       0.33333334       0.00000000 </v>
   <v>       1.00000000       0.33333334       0.00000000 </v>
   <v>       0.33333334       0.33333334       0.00000000 </v>
   <v>       0.00000000       0.00000000       0.00000000 </v>
   <v>       0.33333334       0.66666669       0.00000000 </v>
   <v>       0.66666669       0.00000000       0.00000000 </v>
   <v>       0.11068511       0.22244981       0.95539999 </v>
   <v>       0.22244981       0.11068511       0.04460000 </v>
   <v>       0.11068511       0.55578315       0.95539999 </v>
   <v>       0.22244981       0.44401845       0.04460000 </v>
   <v>       0.11068511       0.88911647       0.95539999 </v>
   <v>       0.22244981       0.77735180       0.04460000 </v>
   <v>       0.44401845       0.22244981       0.95539999 </v>
   <v>       0.55578315       0.11068511       0.04460000 </v>
   <v>       0.44401845       0.55578315       0.95539999 </v>
   <v>       0.55578315       0.44401845       0.04460000 </v>
   <v>       0.44401845       0.88911647       0.95539999 </v>
   <v>       0.55578315       0.77735180       0.04460000 </v>
   <v>       0.77735180       0.22244981       0.95539999 </v>
   <v>       0.88911647       0.11068511       0.04460000 </v>
   <v>       0.77735180       0.55578315       0.95539999 </v>
   <v>       0.88911647       0.44401845       0.04460000 </v>
   <v>       0.77735180       0.88911647       0.95539999 </v>
   <v>       0.88911647       0.77735180       0.04460000 </v>
  </varray>
 </structure>
 <calculation>
  <scstep>
   <time name="dav">   21.80   21.86</time>
   <time name="total">   21.84   21.91</time>
   <energy>
    <i name="alphaZ">     81.65567618 </i>
    <i name="ewald">  41890.23009673 </i>
    <i name="hartreedc"> -47722.85867642 </i>
    <i name="XCdc">   -242.92976591 </i>
    <i name="pawpsdc">   3467.42045192 </i>
    <i name="pawaedc">  -2871.19716117 </i>
    <i name="eentropy">     -0.55180874 </i>
    <i name="bandstr">   -239.51478339 </i>
    <i name="atom">   6761.44252427 </i>
    <i name="e_fr_energy">   1123.69655348 </i>
    <i name="e_wo_entrp">   1124.24836222 </i>
    <i name="e_0_energy">   1123.97245785 </i>
   </energy>
  </scstep>
  <scstep>
   <time name="dav">   27.97   28.04</time>
   <time name="total">   27.97   28.05</time>
   <energy>
    <i name="e_fr_energy">     -1.14915106 </i>
    <i name="e_wo_entrp">     -0.95608313 </i>
    <i name="e_0_energy">     -1.05261710 </i>
   </energy>
  </scstep>
  <scstep>
   <time name="dav">   27.60   27.66</time>
   <time name="total">   27.60   27.67</time>
   <energy>
    <i name="e_fr_energy">   -199.66264820 </i>
    <i name="e_wo_entrp">   -199.39519200 </i>
    <i name="e_0_energy">   -199.52892010 </i>
   </energy>
  </scstep>
  <scstep>
   <time name="dav">   29.03   29.10</time>
   <time name="total">   29.04   29.11</time>
   <energy>
    <i name="e_fr_energy">   -208.89074688 </i>
    <i name="e_wo_entrp">   -208.59239768 </i>
    <i name="e_0_energy">   -208.74157228 </i>
   </energy>
  </scstep>
  <scstep>
   <time name="dav">   29.51   29.58</time>
   <time name="total">   29.97   30.05</time>
   <energy>
    <i name="e_fr_energy">   -209.27675438 </i>
    <i name="e_wo_entrp">   -208.98178002 </i>
    <i name="e_0_energy">   -209.12926720 </i>
   </energy>
  </scstep>
  <scstep>
   <time name="dav">   30.97   31.04</time>
   <time name="total">   31.47   31.55</time>
   <energy>
    <i name="e_fr_energy">   -237.20582718 </i>
    <i name="e_wo_entrp">   -236.93665698 </i>
    <i name="e_0_energy">   -237.07124208 </i>
   </energy>
  </scstep>
  <scstep>
   <time name="dav">   31.84   31.91</time>
   <time name="total">   32.34   32.43</time>
   <energy>
    <i name="e_fr_energy">   -196.63953946 </i>
    <i name="e_wo_entrp">   -196.30556741 </i>
    <i name="e_0_energy">   -196.47255343 </i>
   </energy>
  </scstep>
  <scstep>
   <time name="dav">   29.23   29.30</time>
   <time name="total">   29.74   29.82</time>
   <energy>
    <i name="e_fr_energy">   -190.08514292 </i>
    <i name="e_wo_entrp">   -189.81571686 </i>
    <i name="e_0_energy">   -189.95042989 </i>
   </energy>
  </scstep>
  <scstep>
   <time name="dav">   29.66   29.73</time>
   <time name="total">   30.18   30.26</time>
   <energy>
    <i name="e_fr_energy">   -188.31098102 </i>
    <i name="e_wo_entrp">   -187.98290662 </i>
    <i name="e_0_energy">   -188.14694382 </i>
   </energy>
  </scstep>
  <scstep>
   <time name="dav">   32.34   32.42</time>
   <time name="total">   32.88   32.97</time>
   <energy>
    <i name="e_fr_energy">   -187.12476136 </i>
    <i name="e_wo_entrp">   -186.78227648 </i>
    <i name="e_0_energy">   -186.95351892 </i>
   </energy>
  </scstep>
  <scstep>
   <time name="dav">   30.93   31.00</time>
   <time name="total">   31.47   31.55</time>
   <energy>
    <i name="e_fr_energy">   -187.01470546 </i>
    <i name="e_wo_entrp">   -186.66576809 </i>
    <i name="e_0_energy">   -186.84023677 </i>
   </energy>
  </scstep>
  <scstep>
   <time name="dav">   31.47   31.55</time>
   <time name="total">   32.01   32.10</time>
   <energy>
    <i name="e_fr_energy">   -187.03617831 </i>
    <i name="e_wo_entrp">   -186.70195945 </i>
    <i name="e_0_energy">   -186.86906888 </i>
   </energy>
  </scstep>
  <scstep>
   <time name="dav">   32.09   32.17</time>
   <time name="total">   32.63   32.72</time>
   <energy>
    <i name="e_fr_energy">   -186.93296444 </i>
    <i name="e_wo_entrp">   -186.59666087 </i>
    <i name="e_0_energy">   -186.76481265 </i>
   </energy>
  </scstep>
  <scstep>
   <time name="dav">   31.79   31.86</time>
   <time name="total">   32.32   32.41</time>
   <energy>
    <i name="e_fr_energy">   -186.90414331 </i>
    <i name="e_wo_entrp">   -186.56287969 </i>
    <i name="e_0_energy">   -186.73351150 </i>
   </energy>
  </scstep>
  <scstep>
   <time name="dav">   30.21   30.29</time>
   <time name="total">   30.75   30.83</time>
   <energy>
    <i name="e_fr_energy">   -186.89888872 </i>
    <i name="e_wo_entrp">   -186.55565621 </i>
    <i name="e_0_energy">   -186.72727246 </i>
   </energy>
  </scstep>
  <scstep>
   <time name="dav">   31.85   31.93</time>
   <time name="total">   32.39   32.47</time>
   <energy>
    <i name="e_fr_energy">   -186.89267256 </i>
    <i name="e_wo_entrp">   -186.54915554 </i>
    <i name="e_0_energy">   -186.72091405 </i>
   </energy>
  </scstep>
  <scstep>
   <time name="dav">   31.48   31.56</time>
   <time name="total">   32.02   32.11</time>
   <energy>
    <i name="e_fr_energy">   -186.89002621 </i>
    <i name="e_wo_entrp">   -186.54850030 </i>
    <i name="e_0_energy">   -186.71926326 </i>
   </energy>
  </scstep>
  <scstep>
   <time name="dav">   29.14   29.21</time>
   <time name="total">   29.68   29.76</time>
   <energy>
    <i name="e_fr_energy">   -186.88949568 </i>
    <i name="e_wo_entrp">   -186.54812097 </i>
    <i name="e_0_energy">   -186.71880832 </i>
   </energy>
  </scstep>
  <scstep>
   <time name="dav">   27.67   27.74</time>
   <time name="total">   28.21   28.28</time>
   <energy>
    <i name="e_fr_energy">   -186.88928770 </i>
    <i name="e_wo_entrp">   -186.54745467 </i>
    <i name="e_0_energy">   -186.71837119 </i>
   </energy>
  </scstep>
  <scstep>
   <time name="dav">   23.93   23.99</time>
   <time name="total">   24.47   24.54</time>
   <energy>
    <i name="e_fr_energy">   -186.89017023 </i>
    <i name="e_wo_entrp">   -186.54866490 </i>
    <i name="e_0_energy">   -186.71941756 </i>
   </energy>
  </scstep>
  <scstep>
   <time name="dav">   22.05   22.11</time>
   <time name="total">   22.59   22.66</time>
   <energy>
    <i name="e_fr_energy">   -186.89104119 </i>
    <i name="e_wo_entrp">   -186.54940703 </i>
    <i name="e_0_energy">   -186.72022411 </i>
   </energy>
  </scstep>
  <scstep>
   <time name="dav">   18.97   19.02</time>
   <time name="total">   19.51   19.57</time>
   <energy>
    <i name="e_fr_energy">   -186.89184963 </i>
    <i name="e_wo_entrp">   -186.55024961 </i>
    <i name="e_0_energy">   -186.72104962 </i>
   </energy>
  </scstep>
  <scstep>
   <time name="dav">   20.62   20.67</time>
   <time name="total">   21.16   21.22</time>
   <energy>
    <i name="e_fr_energy">   -186.89300705 </i>
    <i name="e_wo_entrp">   -186.55152295 </i>
    <i name="e_0_energy">   -186.72226500 </i>
   </energy>
  </scstep>
  <scstep>
   <time name="dav">   18.74   18.78</time>
   <time name="total">   19.28   19.34</time>
   <energy>
    <i name="e_fr_energy">   -186.89359037 </i>
    <i name="e_wo_entrp">   -186.55204001 </i>
    <i name="e_0_energy">   -186.72281519 </i>
   </energy>
  </scstep>
  <scstep>
   <time name="dav">   16.68   16.72</time>
   <time name="total">   17.22   17.27</time>
   <energy>
    <i name="e_fr_energy">   -186.89395649 </i>
    <i name="e_wo_entrp">   -186.55238710 </i>
    <i name="e_0_energy">   -186.72317180 </i>
   </energy>
  </scstep>
  <scstep>
   <time name="dav">   18.74   18.79</time>
   <time name="total">   19.28   19.34</time>
   <energy>
    <i name="e_fr_energy">   -186.89419526 </i>
    <i name="e_wo_entrp">   -186.55264691 </i>
    <i name="e_0_energy">   -186.72342109 </i>
   </energy>
  </scstep>
  <scstep>
   <time name="dav">   19.95   20.00</time>
   <time name="total">   19.99   20.05</time>
   <energy>
    <i name="alphaZ">     81.65567618 </i>
    <i name="ewald">  41890.23009673 </i>
    <i name="hartreedc"> -47833.15624080 </i>
    <i name="XCdc">   -231.59758897 </i>
    <i name="pawpsdc">   4192.17676063 </i>
    <i name="pawaedc">  -3610.20236144 </i>
    <i name="eentropy">     -0.34155194 </i>
    <i name="bandstr">  -1437.10160107 </i>
    <i name="atom">   6761.44252427 </i>
    <i name="e_fr_energy">   -186.89428641 </i>
    <i name="e_wo_entrp">   -186.55273447 </i>
    <i name="e_0_energy">   -186.72351044 </i>
   </energy>
  </scstep>
  <structure>
   <crystal>
    <varray name="basis" >
     <v>       8.66999996       5.03999989       0.00000000 </v>
     <v>      -8.66999982       5.04000013       0.00000000 </v>
     <v>       0.00000000       0.00000000      30.00000000 </v>
    </varray>
    <i name="volume">   2621.80797419 </i>
    <varray name="rec_basis" >
     <v>       0.05767013       0.09920635       0.00000000 </v>
     <v>      -0.05767013       0.09920635       0.00000000 </v>
     <v>       0.00000000       0.00000000       0.03333333 </v>
    </varray>
   </crystal>
   <varray name="positions" >
    <v>       0.33333334       0.00000000       0.00000000 </v>
    <v>       0.00000000       0.66666669       0.00000000 </v>
    <v>       0.66666669       0.66666669       0.00000000 </v>
    <v>       0.66666669       0.33333334       0.00000000 </v>
    <v>       1.00000000       0.33333334       0.00000000 </v>
    <v>       0.33333334       0.33333334       0.00000000 </v>
    <v>       0.00000000       0.00000000       0.00000000 </v>
    <v>       0.33333334       0.66666669       0.00000000 </v>
    <v>       0.66666669       0.00000000       0.00000000 </v>
    <v>       0.11068511       0.22244981       0.95539999 </v>
    <v>       0.22244981       0.11068511       0.04460000 </v>
    <v>       0.11068511       0.55578315       0.95539999 </v>
    <v>       0.22244981       0.44401845       0.04460000 </v>
    <v>       0.11068511       0.88911647       0.95539999 </v>
    <v>       0.22244981       0.77735180       0.04460000 </v>
    <v>       0.44401845       0.22244981       0.95539999 </v>
    <v>       0.55578315       0.11068511       0.04460000 </v>
    <v>       0.44401845       0.55578315       0.95539999 </v>
    <v>       0.55578315       0.44401845       0.04460000 </v>
    <v>       0.44401845       0.88911647       0.95539999 </v>
    <v>       0.55578315       0.77735180       0.04460000 </v>
    <v>       0.77735180       0.22244981       0.95539999 </v>
    <v>       0.88911647       0.11068511       0.04460000 </v>
    <v>       0.77735180       0.55578315       0.95539999 </v>
    <v>       0.88911647       0.44401845       0.04460000 </v>
    <v>       0.77735180       0.88911647       0.95539999 </v>
    <v>       0.88911647       0.77735180       0.04460000 </v>
   </varray>
  </structure>
  <varray name="forces" >
   <v>      -0.22003199       0.28687758       0.08168487 </v>
   <v>       0.14605467      -0.31238724       0.01121614 </v>
   <v>       0.28492375      -0.31913631      -0.09417446 </v>
   <v>      -0.03380497       0.03184268      -0.00982826 </v>
   <v>      -0.00322159      -0.02360080       0.03011062 </v>
   <v>       0.01531791       0.00391585      -0.12094587 </v>
   <v>      -0.11441395       0.38491465      -0.01467757 </v>
   <v>       0.17789711      -0.45904263       0.04032323 </v>
   <v>      -0.28578475       0.44562301       0.11997359 </v>
   <v>       0.20657591      -0.13346110      -2.90270892 </v>
   <v>       0.69658582      -0.16069055       2.13425614 </v>
   <v>      -0.65734911       0.14557318      -2.13156821 </v>
   <v>      -0.22374850       0.14125330       2.88043286 </v>
   <v>       0.73796010      -0.00172901      -1.44463280 </v>
   <v>      -0.74098190       0.01796985       1.45750832 </v>
   <v>       0.50723917      -0.68976532      -2.14364983 </v>
   <v>      -0.35555254      -0.73545469       2.19615961 </v>
   <v>       0.38299614       0.71322955      -2.20638320 </v>
   <v>      -0.51104248       0.69307564       2.14909615 </v>
   <v>      -0.59102455      -0.00455129      -2.07142666 </v>
   <v>       0.58468345       0.01346476       2.07018628 </v>
   <v>       0.20637858      -0.12479315      -2.90428449 </v>
   <v>      -0.07219525      -0.14190820       2.94044693 </v>
   <v>      -0.34796443       0.66844176      -1.44652420 </v>
   <v>      -0.51660530       0.69130244       2.14423399 </v>
   <v>       0.49123573      -0.60187617      -2.15118789 </v>
   <v>       0.23587297      -0.52908776       1.38636363 </v>
  </varray>
  <varray name="stress" >
   <v>       7.26428798      -0.11685679      -1.50055819 </v>
   <v>      -0.11685668       4.49846009       0.01535640 </v>
   <v>      -1.50055832       0.01535641      30.28055263 </v>
  </varray>
  <energy>
   <i name="e_fr_energy">   -186.89428641 </i>
   <i name="e_wo_entrp">   -186.72351044 </i>
   <i name="e_0_energy">     -0.34155194 </i>
  </energy>
  <time name="totalsc">  780.17  782.28</time>
 </calculation>
 <calculation>
  <scstep>
   <time name="dav">   21.73   21.78</time>
   <time name="total">   22.27   22.33</time>
   <energy>
    <i name="alphaZ">     78.91938579 </i>
    <i name="ewald">  39379.51491743 </i>
    <i name="hartreedc"> -45337.11619130 </i>
    <i name="XCdc">   -239.05185442 </i>
    <i name="pawpsdc">   4192.15816856 </i>
    <i name="pawaedc">  -3610.18389868 </i>
    <i name="eentropy">     -0.27764095 </i>
    <i name="bandstr">  -1412.93714648 </i>
    <i name="atom">   6761.44252427 </i>
    <i name="e_fr_energy">   -187.53173578 </i>
    <i name="e_wo_entrp">   -187.25409483 </i>
    <i name="e_0_energy">   -187.39291530 </i>
   </energy>
  </scstep>
  <scstep>
   <time name="dav">   30.40   30.48</time>
   <time name="total">   30.94   31.03</time>
   <energy>
    <i name="e_fr_energy">   -189.59278346 </i>
    <i name="e_wo_entrp">   -189.25656634 </i>
    <i name="e_0_energy">   -189.42467490 </i>
   </energy>
  </scstep>
  <scstep>
   <time name="dav">   30.33   30.41</time>
   <time name="total">   30.89   30.97</time>
   <energy>
    <i name="e_fr_energy">   -189.33019892 </i>
    <i name="e_wo_entrp">   -189.06104167 </i>
    <i name="e_0_energy">   -189.19562030 </i>
   </energy>
  </scstep>
  <scstep>
   <time name="dav">   30.85   30.93</time>
   <time name="total">   31.40   31.49</time>
   <energy>
    <i name="e_fr_energy">   -188.78981366 </i>
    <i name="e_wo_entrp">   -188.51026746 </i>
    <i name="e_0_energy">   -188.65004056 </i>
   </energy>
  </scstep>
  <scstep>
   <time name="dav">   29.93   30.01</time>
   <time name="total">   30.48   30.56</time>
   <energy>
    <i name="e_fr_energy">   -188.88715676 </i>
    <i name="e_wo_entrp">   -188.60072476 </i>
    <i name="e_0_energy">   -188.74394076 </i>
   </energy>
  </scstep>
  <scstep>
   <time name="dav">   30.96   31.04</time>
   <time name="total">   31.51   31.60</time>
   <energy>
    <i name="e_fr_energy">   -188.77919381 </i>
    <i name="e_wo_entrp">   -188.50258253 </i>
    <i name="e_0_energy">   -188.64088817 </i>
   </energy>
  </scstep>
  <scstep>
   <time name="dav">   29.81   29.89</time>
   <time name="total">   30.36   30.45</time>
   <energy>
    <i name="e_fr_energy">   -188.71992820 </i>
    <i name="e_wo_entrp">   -188.44077694 </i>
    <i name="e_0_energy">   -188.58035257 </i>
   </energy>
  </scstep>
  <scstep>
   <time name="dav">   31.58   31.66</time>
   <time name="total">   32.13   32.34</time>
   <energy>
    <i name="e_fr_energy">   -188.70984196 </i>
    <i name="e_wo_entrp">   -188.43196064 </i>
    <i name="e_0_energy">   -188.57090130 </i>
   </energy>
  </scstep>
  <scstep>
   <time name="dav">   29.67   29.74</time>
   <time name="total">   30.21   30.30</time>
   <energy>
    <i name="e_fr_energy">   -188.69979400 </i>
    <i name="e_wo_entrp">   -188.42269086 </i>
    <i name="e_0_energy">   -188.56124243 </i>
   </energy>
  </scstep>
  <scstep>
   <time name="dav">   29.74   29.82</time>
   <time name="total">   30.29   30.38</time>
   <energy>
    <i name="e_fr_energy">   -188.69888178 </i>
    <i name="e_wo_entrp">   -188.42217892 </i>
    <i name="e_0_energy">   -188.56053035 </i>
   </energy>
  </scstep>
  <scstep>
   <time name="dav">   30.54   30.62</time>
   <time name="total">   31.09   31.18</time>
   <energy>
    <i name="e_fr_energy">   -188.69824168 </i>
    <i name="e_wo_entrp">   -188.42183677 </i>
    <i name="e_0_energy">   -188.56003922 </i>
   </energy>
  </scstep>
  <scstep>
   <time name="dav">   29.33   29.40</time>
   <time name="total">   29.36   29.45</time>
   <energy>
    <i name="alphaZ">     78.91938579 </i>
    <i name="ewald">  39379.51491743 </i>
    <i name="hartreedc"> -45347.96980444 </i>
    <i name="XCdc">   -237.96500690 </i>
    <i name="pawpsdc">   3952.27585535 </i>
    <i name="pawaedc">  -3366.81390288 </i>
    <i name="eentropy">     -0.27634529 </i>
    <i name="bandstr">  -1407.82595957 </i>
    <i name="atom">   6761.44252427 </i>
    <i name="e_fr_energy">   -188.69833624 </i>
    <i name="e_wo_entrp">   -188.42199094 </i>
    <i name="e_0_energy">   -188.56016359 </i>
   </energy>
  </scstep>
  <structure>
   <crystal>
    <varray name="basis" >
     <v>       8.85242714       5.10332821       0.00000000 </v>
     <v>      -8.85587107       5.10925307       0.00000000 </v>
     <v>       0.00000000       0.00000000      30.00000000 </v>
    </varray>
    <i name="volume">   2712.71121545 </i>
    <varray name="rec_basis" >
     <v>       0.05650347       0.09793749       0.00000000 </v>
     <v>      -0.05643794       0.09789941       0.00000000 </v>
     <v>       0.00000000       0.00000000       0.03333333 </v>
    </varray>
   </crystal>
   <varray name="positions" >
    <v>       0.33409417       0.00198515       0.00013136 </v>
    <v>      -0.00108873       0.66476526       0.00001804 </v>
    <v>       0.66593201       0.66434660      -0.00015144 </v>
    <v>       0.66672503       0.33357979      -0.00001580 </v>
    <v>       0.99987808       0.33322935       0.00004842 </v>
    <v>       0.33339470       0.33330947      -0.00019449 </v>
    <v>       0.00152387       0.00216051      -0.00002360 </v>
    <v>       0.33163131       0.66397478       0.00006484 </v>
    <v>       0.66800433       0.00292784       0.00019293 </v>
    <v>       0.11062110       0.22123634       0.95073218 </v>
    <v>       0.22361876       0.10797804       0.04803207 </v>
    <v>       0.10955297       0.55830871       0.95197224 </v>
    <v>       0.22250334       0.44531699       0.04923199 </v>
    <v>       0.11272996       0.88705507       0.95307689 </v>
    <v>       0.22047428       0.77949933       0.04694380 </v>
    <v>       0.44212847       0.21773739       0.95195281 </v>
    <v>       0.55127408       0.10815444       0.04813162 </v>
    <v>       0.44849751       0.55813110       0.95185193 </v>
    <v>       0.55767839       0.44875730       0.04805594 </v>
    <v>       0.44235235       0.89073901       0.95206895 </v>
    <v>       0.55747428       0.77578956       0.04792904 </v>
    <v>       0.77732872       0.22127837       0.95072964 </v>
    <v>       0.88823644       0.11020680       0.04932850 </v>
    <v>       0.77958285       0.55995039       0.95307385 </v>
    <v>       0.89098775       0.44876429       0.04804812 </v>
    <v>       0.77583793       0.88486920       0.95194069 </v>
    <v>       0.88724050       0.77416336       0.04682939 </v>
   </varray>
  </structure>
  <varray name="forces" >
   <v>      -0.17274787       0.28002333      -0.06923960 </v>
   <v>       0.15601885      -0.25739560       0.08699211 </v>
   <v>       0.20819820      -0.35054341       0.04732275 </v>
   <v>       0.13039355      -0.07787830       0.00581883 </v>
   <v>       0.16488963      -0.14113234       0.01329247 </v>
   <v>      -0.15349103      -0.03413526      -0.03885160 </v>
   <v>      -0.35207395       0.41989657      -0.09930427 </v>
   <v>       0.26995044      -0.49593223       0.08135787 </v>
   <v>      -0.22582645       0.59396830      -0.06304141 </v>
   <v>       0.05760011      -0.10798413      -0.17093646 </v>
   <v>      -0.01350934      -0.09972379       0.07989614 </v>
   <v>       0.01670974       0.10040277      -0.06801498 </v>
   <v>      -0.04819945       0.10687621       0.13772497 </v>
   <v>      -0.10805912      -0.00145199       0.25024565 </v>
   <v>       0.10829641      -0.00843555      -0.21598237 </v>
   <v>       0.03012847      -0.06911392      -0.06391199 </v>
   <v>       0.09388700      -0.05819827       0.09895174 </v>
   <v>      -0.09652341       0.05057702      -0.09124079 </v>
   <v>      -0.02643202       0.06879570       0.02623991 </v>
   <v>       0.09572231      -0.00734114       0.27206102 </v>
   <v>      -0.09282699       0.00820286      -0.23725307 </v>
   <v>       0.05859571      -0.10705705      -0.13540895 </v>
   <v>       0.06298162      -0.08849186       0.14593713 </v>
   <v>      -0.00195766       0.04403035      -0.03821586 </v>
   <v>      -0.04708410       0.07620261       0.05575255 </v>
   <v>      -0.05549625       0.06857185       0.23446048 </v>
   <v>      -0.05914441       0.08726728      -0.24465224 </v>
  </varray>
  <varray name="stress" >
   <v>     -19.98357494       0.02693792      -0.01585191 </v>
   <v>       0.02693788     -19.57987036       0.11657984 </v>
   <v>      -0.01585193       0.11657981      -1.81073681 </v>
  </varray>
  <energy>
   <i name="e_fr_energy">   -188.69833624 </i>
   <i name="e_wo_entrp">   -188.56016359 </i>
   <i name="e_0_energy">     -0.27634529 </i>
  </energy>
  <time name="totalsc">  403.15  404.38</time>
 </calculation>
 <calculation>
  <scstep>
   <time name="dav">   23.69   23.75</time>
   <time name="total">   24.23   24.29</time>
   <energy>
    <i name="alphaZ">     82.33531330 </i>
    <i name="ewald">  41297.95884777 </i>
    <i name="hartreedc"> -47296.86565389 </i>
    <i name="XCdc">   -233.85528080 </i>
    <i name="pawpsdc">   3950.55070918 </i>
    <i name="pawaedc">  -3365.06938591 </i>
    <i name="eentropy">     -0.23208691 </i>
    <i name="bandstr">  -1386.88345385 </i>
    <i name="atom">   6761.44252427 </i>
    <i name="e_fr_energy">   -190.61846683 </i>
    <i name="e_wo_entrp">   -190.38637992 </i>
    <i name="e_0_energy">   -190.50242338 </i>
   </energy>
  </scstep>
  <scstep>
   <time name="dav">   28.02   28.09</time>
   <time name="total">   28.54   28.62</time>
   <energy>
    <i name="e_fr_energy">   -190.56876350 </i>
    <i name="e_wo_entrp">   -190.34025175 </i>
    <i name="e_0_energy">   -190.45450762 </i>
   </energy>
  </scstep>
  <scstep>
   <time name="dav">   30.33   30.41</time>
   <time name="total">   30.86   30.95</time>
   <energy>
    <i name="e_fr_energy">   -190.10645495 </i>
    <i name="e_wo_entrp">   -189.85764408 </i>
    <i name="e_0_energy">   -189.98204951 </i>
   </energy>
  </scstep>
  <scstep>
   <time name="dav">   30.77   30.85</time>
   <time name="total">   31.31   31.40</time>
   <energy>
    <i name="e_fr_energy">   -189.89401690 </i>
    <i name="e_wo_entrp">   -189.66564477 </i>
    <i name="e_0_energy">   -189.77983083 </i>
   </energy>
  </scstep>
  <scstep>
   <time name="dav">   30.24   30.31</time>
   <time name="total">   30.77   30.86</time>
   <energy>
    <i name="e_fr_energy">   -189.84649341 </i>
    <i name="e_wo_entrp">   -189.61180011 </i>
    <i name="e_0_energy">   -189.72914676 </i>
   </energy>
  </scstep>
  <scstep>
   <time name="dav">   31.13   31.21</time>
   <time name="total">   31.67   31.76</time>
   <energy>
    <i name="e_fr_energy">   -189.79709987 </i>
    <i name="e_wo_entrp">   -189.56301024 </i>
    <i name="e_0_energy">   -189.68005505 </i>
   </energy>
  </scstep>
  <scstep>
   <time name="dav">   28.78   28.85</time>
   <time name="total">   29.31   29.40</time>
   <energy>
    <i name="e_fr_energy">   -189.79033991 </i>
    <i name="e_wo_entrp">   -189.55763800 </i>
    <i name="e_0_energy">   -189.67398895 </i>
   </energy>
  </scstep>
  <scstep>
   <time name="dav">   29.70   29.77</time>
   <time name="total">   30.23   30.32</time>
   <energy>
    <i name="e_fr_energy">   -189.79067513 </i>
    <i name="e_wo_entrp">   -189.55777695 </i>
    <i name="e_0_energy">   -189.67422604 </i>
   </energy>
  </scstep>
  <scstep>
   <time name="dav">   27.26   27.33</time>
   <time name="total">   27.80   27.88</time>
   <energy>
    <i name="e_fr_energy">   -189.79050331 </i>
    <i name="e_wo_entrp">   -189.55756232 </i>
    <i name="e_0_energy">   -189.67403281 </i>
   </energy>
  </scstep>
  <scstep>
   <time name="dav">   25.29   25.35</time>
   <time name="total">   25.82   25.90</time>
   <energy>
    <i name="e_fr_energy">   -189.79070443 </i>
    <i name="e_wo_entrp">   -189.55775409 </i>
    <i name="e_0_energy">   -189.67422926 </i>
   </energy>
  </scstep>
  <scstep>
   <time name="dav">   23.33   23.39</time>
   <time name="total">   23.87   23.94</time>
   <energy>
    <i name="e_fr_energy">   -189.79042607 </i>
    <i name="e_wo_entrp">   -189.55736447 </i>
    <i name="e_0_energy">   -189.67389527 </i>
   </energy>
  </scstep>
  <scstep>
   <time name="dav">   19.58   19.63</time>
   <time name="total">   19.62   19.67</time>
   <energy>
    <i name="alphaZ">     82.33531330 </i>
    <i name="ewald">  41297.95884777 </i>
    <i name="hartreedc"> -47270.22547657 </i>
    <i name="XCdc">   -235.24614267 </i>
    <i name="pawpsdc">   4038.62361544 </i>
    <i name="pawaedc">  -3454.33164750 </i>
    <i name="eentropy">     -0.23303754 </i>
    <i name="bandstr">  -1410.11444607 </i>
    <i name="atom">   6761.44252427 </i>
    <i name="e_fr_energy">   -189.79044956 </i>
    <i name="e_wo_entrp">   -189.55741203 </i>
    <i name="e_0_energy">   -189.67393079 </i>
   </energy>
  </scstep>
  <structure>
   <crystal>
    <varray name="basis" >
     <v>       8.66509941       4.99768787       0.00000000 </v>
     <v>      -8.66817886       5.00298427       0.00000000 </v>
     <v>       0.00000000       0.00000000      30.00000000 </v>
    </varray>
    <i name="volume">   2600.16625133 </i>
    <varray name="rec_basis" >
     <v>       0.05772305       0.10001105       0.00000000 </v>
     <v>      -0.05766194       0.09997552       0.00000000 </v>
     <v>       0.00000000       0.00000000       0.03333333 </v>
    </varray>
   </crystal>
   <varray name="positions" >
    <v>       0.33439268       0.00261320       0.00009235 </v>
    <v>      -0.00136577       0.66419060       0.00006704 </v>
    <v>       0.66555063       0.66356807      -0.00012478 </v>
    <v>       0.66672065       0.33332658      -0.00001253 </v>
    <v>       0.99980195       0.33283859       0.00005591 </v>
    <v>       0.33319164       0.33339939      -0.00021638 </v>
    <v>       0.00188266       0.00319101      -0.00007954 </v>
    <v>       0.33106827       0.66289681       0.00011067 </v>
    <v>       0.66877177       0.00412592       0.00015742 </v>
    <v>       0.11049737       0.22100275       0.95063589 </v>
    <v>       0.22344081       0.10782593       0.04807708 </v>
    <v>       0.10973510       0.55845889       0.95193393 </v>
    <v>       0.22263421       0.44553979       0.04930957 </v>
    <v>       0.11262437       0.88715573       0.95321786 </v>
    <v>       0.22056373       0.77938208       0.04682213 </v>
    <v>       0.44204285       0.21759431       0.95191681 </v>
    <v>       0.55126741       0.10796861       0.04818736 </v>
    <v>       0.44848905       0.55830684       0.95180053 </v>
    <v>       0.55776702       0.44889633       0.04807072 </v>
    <v>       0.44243160       0.89063557       0.95222221 </v>
    <v>       0.55739922       0.77589166       0.04779539 </v>
    <v>       0.77720748       0.22104537       0.95065337 </v>
    <v>       0.88815012       0.11000032       0.04941071 </v>
    <v>       0.77965386       0.56002511       0.95305232 </v>
    <v>       0.89106891       0.44893527       0.04807952 </v>
    <v>       0.77589843       0.88503558       0.95207277 </v>
    <v>       0.88732846       0.77436415       0.04669158 </v>
   </varray>
  </structure>
  <varray name="forces" >
   <v>      -0.15498105       0.30645636      -0.08551174 </v>
   <v>       0.17795364      -0.24752018       0.08607931 </v>
   <v>       0.16683493      -0.38143783       0.07231810 </v>
   <v>       0.18332300      -0.12230515       0.01169135 </v>
   <v>       0.21355256      -0.17719120       0.00554156 </v>
   <v>      -0.20843487      -0.03582081      -0.00947710 </v>
   <v>      -0.42607289       0.41909260      -0.08501805 </v>
   <v>       0.30357935      -0.49307289       0.06533186 </v>
   <v>      -0.21410858       0.63012554      -0.08439964 </v>
   <v>       0.00810366      -0.02294814      -0.74170454 </v>
   <v>       0.09141158      -0.01838112       0.58167267 </v>
   <v>      -0.09023734       0.02245316      -0.57204168 </v>
   <v>       0.00110260       0.02220754       0.69884115 </v>
   <v>       0.04836335      -0.00630740      -0.19156267 </v>
   <v>      -0.04710507      -0.00207296       0.22746681 </v>
   <v>       0.06586235      -0.12172063      -0.54625171 </v>
   <v>      -0.03529882      -0.11096813       0.61837967 </v>
   <v>       0.02025673       0.10962221      -0.61159170 </v>
   <v>      -0.05577848       0.12048212       0.50169107 </v>
   <v>      -0.03015747      -0.02041539      -0.19093465 </v>
   <v>       0.03929046       0.01941774       0.22925431 </v>
   <v>       0.00640245      -0.02013365      -0.69803100 </v>
   <v>       0.02672092      -0.01587945       0.73369836 </v>
   <v>      -0.02954071       0.10013274      -0.49090479 </v>
   <v>      -0.08032221       0.12900316       0.53935263 </v>
   <v>       0.01296709      -0.05700788      -0.25080889 </v>
   <v>       0.00631284      -0.02581035       0.18691931 </v>
  </varray>
  <varray name="stress" >
   <v>     -10.15834420       0.02513545      -0.05574651 </v>
   <v>       0.02513554      -9.89216867       0.12665241 </v>
   <v>      -0.05574625       0.12665250       6.47630202 </v>
  </varray>
  <energy>
   <i name="e_fr_energy">   -189.79044956 </i>
   <i name="e_wo_entrp">   -189.67393079 </i>
   <i name="e_0_energy">     -0.23303754 </i>
  </energy>
  <time name="totalsc">  376.08  377.15</time>
 </calculation>
 <calculation>
  <scstep>
   <time name="dav">   21.74   21.79</time>
   <time name="total">   22.26   22.32</time>
   <energy>
    <i name="alphaZ">     85.80261236 </i>
    <i name="ewald">  42825.48110498 </i>
    <i name="hartreedc"> -48842.06739948 </i>
    <i name="XCdc">   -232.96314057 </i>
    <i name="pawpsdc">   4038.74660464 </i>
    <i name="pawaedc">  -3454.45268028 </i>
    <i name="eentropy">     -0.19154914 </i>
    <i name="bandstr">  -1373.16426373 </i>
    <i name="atom">   6761.44252427 </i>
    <i name="e_fr_energy">   -191.36618695 </i>
    <i name="e_wo_entrp">   -191.17463780 </i>
    <i name="e_0_energy">   -191.27041238 </i>
   </energy>
  </scstep>
  <scstep>
   <time name="dav">   32.58   32.66</time>
   <time name="total">   33.10   33.18</time>
   <energy>
    <i name="e_fr_energy">   -191.18463413 </i>
    <i name="e_wo_entrp">   -190.99478849 </i>
    <i name="e_0_energy">   -191.08971131 </i>
   </energy>
  </scstep>
  <scstep>
   <time name="dav">   30.02   30.09</time>
   <time name="total">   30.54   30.62</time>
   <energy>
    <i name="e_fr_energy">   -191.33273577 </i>
    <i name="e_wo_entrp">   -191.10901720 </i>
    <i name="e_0_energy">   -191.22087649 </i>
   </energy>
  </scstep>
  <scstep>
   <time name="dav">   30.70   30.77</time>
   <time name="total">   31.22   31.30</time>
   <energy>
    <i name="e_fr_energy">   -190.93494473 </i>
    <i name="e_wo_entrp">   -190.74382058 </i>
    <i name="e_0_energy">   -190.83938265 </i>
   </energy>
  </scstep>
  <scstep>
   <time name="dav">   30.16   30.23</time>
   <time name="total">   30.68   30.76</time>
   <energy>
    <i name="e_fr_energy">   -190.89096008 </i>
    <i name="e_wo_entrp">   -190.69613855 </i>
    <i name="e_0_energy">   -190.79354932 </i>
   </energy>
  </scstep>
  <scstep>
   <time name="dav">   30.23   30.30</time>
   <time name="total">   30.75   30.83</time>
   <energy>
    <i name="e_fr_energy">   -190.80716500 </i>
    <i name="e_wo_entrp">   -190.60856015 </i>
    <i name="e_0_energy">   -190.70786258 </i>
   </energy>
  </scstep>
  <scstep>
   <time name="dav">   30.86   30.94</time>
   <time name="total">   31.38   31.46</time>
   <energy>
    <i name="e_fr_energy">   -190.79493330 </i>
    <i name="e_wo_entrp">   -190.60049979 </i>
    <i name="e_0_energy">   -190.69771655 </i>
   </energy>
  </scstep>
  <scstep>
   <time name="dav">   28.20   28.27</time>
   <time name="total">   28.72   28.80</time>
   <energy>
    <i name="e_fr_energy">   -190.79234216 </i>
    <i name="e_wo_entrp">   -190.59661733 </i>
    <i name="e_0_energy">   -190.69447974 </i>
   </energy>
  </scstep>
  <scstep>
   <time name="dav">   28.26   28.32</time>
   <time name="total">   28.78   28.85</time>
   <energy>
    <i name="e_fr_energy">   -190.79158786 </i>
    <i name="e_wo_entrp">   -190.59591429 </i>
    <i name="e_0_energy">   -190.69375107 </i>
   </energy>
  </scstep>
  <scstep>
   <time name="dav">   28.45   28.52</time>
   <time name="total">   28.97   29.05</time>
   <energy>
    <i name="e_fr_energy">   -190.79172351 </i>
    <i name="e_wo_entrp">   -190.59578120 </i>
    <i name="e_0_energy">   -190.69375235 </i>
   </energy>
  </scstep>
  <scstep>
   <time name="dav">   24.29   24.35</time>
   <time name="total">   24.33   24.39</time>
   <energy>
    <i name="alphaZ">     85.80261236 </i>
    <i name="ewald">  42825.48110498 </i>
    <i name="hartreedc"> -48813.28764012 </i>
    <i name="XCdc">   -234.28961122 </i>
    <i name="pawpsdc">   4063.58941744 </i>
    <i name="pawaedc">  -3479.47228847 </i>
    <i name="eentropy">     -0.19584710 </i>
    <i name="bandstr">  -1399.86190959 </i>
    <i name="atom">   6761.44252427 </i>
    <i name="e_fr_energy">   -190.79163744 </i>
    <i name="e_wo_entrp">   -190.59579034 </i>
    <i name="e_0_energy">   -190.69371389 </i>
   </energy>
  </scstep>
  <structure>
   <crystal>
    <varray name="basis" >
     <v>       8.48550478       4.89823907       0.00000000 </v>
     <v>      -8.48764777       4.90191709       0.00000000 </v>
     <v>       0.00000000       0.00000000      30.00000000 </v>
    </varray>
    <i name="volume">   2495.09306370 </i>
    <varray name="rec_basis" >
     <v>       0.05893869       0.10205208       0.00000000 </v>
     <v>      -0.05889447       0.10202631       0.00000000 </v>
     <v>       0.00000000       0.00000000       0.03333333 </v>
    </varray>
   </crystal>
   <varray name="positions" >
    <v>       0.33584101       0.00512787      -0.00009817 </v>
    <v>      -0.00221483       0.66199497       0.00024413 </v>
    <v>       0.66363113       0.66056482       0.00004589 </v>
    <v>       0.66658292       0.33171409       0.00001662 </v>
    <v>       0.99944490       0.33080107       0.00006077 </v>
    <v>       0.33213201       0.33400189      -0.00021100 </v>
    <v>       0.00285659       0.00745121      -0.00024307 </v>
    <v>       0.32913664       0.65867910       0.00023205 </v>
    <v>       0.67204599       0.00890980      -0.00003513 </v>
    <v>       0.11052417       0.22111356       0.94861824 </v>
    <v>       0.22401007       0.10743351       0.04970542 </v>
    <v>       0.10920110       0.55888391       0.95032357 </v>
    <v>       0.22263665       0.44539234       0.05123045 </v>
    <v>       0.11297271       0.88670473       0.95244657 </v>
    <v>       0.22017277       0.77977846       0.04766901 </v>
    <v>       0.44143964       0.21641331       0.95037817 </v>
    <v>       0.55012831       0.10745647       0.04990655 </v>
    <v>       0.44956324       0.55889831       0.95009458 </v>
    <v>       0.55840579       0.45002173       0.04951142 </v>
    <v>       0.44198112       0.89076519       0.95143421 </v>
    <v>       0.55788076       0.77570925       0.04866556 </v>
    <v>       0.77724656       0.22118850       0.94873288 </v>
    <v>       0.88827635       0.11003814       0.05142626 </v>
    <v>       0.78027366       0.56093720       0.95165325 </v>
    <v>       0.89166955       0.45021081       0.04960497 </v>
    <v>       0.77537385       0.88422056       0.95114212 </v>
    <v>       0.88700181       0.77380364       0.04744458 </v>
   </varray>
  </structure>
  <varray name="forces" >
   <v>      -0.16987798       0.32090162      -0.07918934 </v>
   <v>       0.18365767      -0.22591287       0.04930173 </v>
   <v>       0.17803356      -0.45296832       0.07391583 </v>
   <v>       0.21579242      -0.14733728       0.01302539 </v>
   <v>       0.26230917      -0.20854120      -0.01320221 </v>
   <v>      -0.25312014      -0.03557191       0.02584452 </v>
   <v>      -0.45139585       0.41775696      -0.01995573 </v>
   <v>       0.33073664      -0.55515686       0.00368309 </v>
   <v>      -0.22241698       0.71954441      -0.03729973 </v>
   <v>      -0.02421925       0.06271401      -0.59285889 </v>
   <v>      -0.01273820       0.02293007       0.37934269 </v>
   <v>       0.00055242      -0.04442461      -0.38430533 </v>
   <v>       0.02184864      -0.07066144       0.53940961 </v>
   <v>      -0.02504751       0.00217330      -0.08112563 </v>
   <v>      -0.00121486      -0.00551801       0.14146638 </v>
   <v>      -0.01196892       0.00142658      -0.39088363 </v>
   <v>      -0.02543723      -0.00912077       0.47293635 </v>
   <v>       0.04397545       0.00517335      -0.48519360 </v>
   <v>       0.01944392      -0.00569760       0.35797785 </v>
   <v>       0.04756285      -0.01604345       0.01072445 </v>
   <v>      -0.03507602       0.03618879       0.03144069 </v>
   <v>      -0.04244541       0.08743387      -0.56325192 </v>
   <v>      -0.01902741       0.03743175       0.58860466 </v>
   <v>       0.02931627      -0.00106732      -0.37883535 </v>
   <v>      -0.00398572       0.01029349       0.38650410 </v>
   <v>      -0.00235079       0.00694746      -0.11068594 </v>
   <v>      -0.03290674       0.04710598       0.06260996 </v>
  </varray>
  <varray name="stress" >
   <v>      -5.87673358      -0.11197399      -0.08978323 </v>
   <v>      -0.11197406      -5.76285746      -0.05702738 </v>
   <v>      -0.08978312      -0.05702749       4.58117630 </v>
  </varray>
  <energy>
   <i name="e_fr_energy">   -190.79163744 </i>
   <i name="e_wo_entrp">   -190.69371389 </i>
   <i name="e_0_energy">     -0.19584710 </i>
  </energy>
  <time name="totalsc">  362.52  363.50</time>
 </calculation>
 <calculation>
  <scstep>
   <time name="dav">   21.73   21.79</time>
   <time name="total">   22.24   22.30</time>
   <energy>
    <i name="alphaZ">     90.23756408 </i>
    <i name="ewald">  44694.23791404 </i>
    <i name="hartreedc"> -50738.26013682 </i>
    <i name="XCdc">   -231.78559779 </i>
    <i name="pawpsdc">   4063.88450589 </i>
    <i name="pawaedc">  -3479.76589730 </i>
    <i name="eentropy">     -0.16412900 </i>
    <i name="bandstr">  -1352.09397815 </i>
    <i name="atom">   6761.44252427 </i>
    <i name="e_fr_energy">   -192.26723078 </i>
    <i name="e_wo_entrp">   -192.10310179 </i>
    <i name="e_0_energy">   -192.18516628 </i>
   </energy>
  </scstep>
  <scstep>
   <time name="dav">   27.53   27.60</time>
   <time name="total">   28.04   28.11</time>
   <energy>
    <i name="e_fr_energy">   -191.99486848 </i>
    <i name="e_wo_entrp">   -191.81936796 </i>
    <i name="e_0_energy">   -191.90711822 </i>
   </energy>
  </scstep>
  <scstep>
   <time name="dav">   30.01   30.09</time>
   <time name="total">   30.52   30.60</time>
   <energy>
    <i name="e_fr_energy">   -192.04695704 </i>
    <i name="e_wo_entrp">   -191.86603094 </i>
    <i name="e_0_energy">   -191.95649399 </i>
   </energy>
  </scstep>
  <scstep>
   <time name="dav">   29.56   29.63</time>
   <time name="total">   30.07   30.15</time>
   <energy>
    <i name="e_fr_energy">   -191.87904377 </i>
    <i name="e_wo_entrp">   -191.70009963 </i>
    <i name="e_0_energy">   -191.78957170 </i>
   </energy>
  </scstep>
  <scstep>
   <time name="dav">   30.27   30.34</time>
   <time name="total">   30.77   30.86</time>
   <energy>
    <i name="e_fr_energy">   -191.61194895 </i>
    <i name="e_wo_entrp">   -191.44415947 </i>
    <i name="e_0_energy">   -191.52805421 </i>
   </energy>
  </scstep>
  <scstep>
   <time name="dav">   30.78   30.86</time>
   <time name="total">   31.30   31.37</time>
   <energy>
    <i name="e_fr_energy">   -191.58918366 </i>
    <i name="e_wo_entrp">   -191.40696862 </i>
    <i name="e_0_energy">   -191.49807614 </i>
   </energy>
  </scstep>
  <scstep>
   <time name="dav">   30.34   30.41</time>
   <time name="total">   30.84   30.93</time>
   <energy>
    <i name="e_fr_energy">   -191.57155820 </i>
    <i name="e_wo_entrp">   -191.40501585 </i>
    <i name="e_0_energy">   -191.48828702 </i>
   </energy>
  </scstep>
  <scstep>
   <time name="dav">   29.66   29.73</time>
   <time name="total">   30.17   30.25</time>
   <energy>
    <i name="e_fr_energy">   -191.56510281 </i>
    <i name="e_wo_entrp">   -191.39387933 </i>
    <i name="e_0_energy">   -191.47949107 </i>
   </energy>
  </scstep>
  <scstep>
   <time name="dav">   29.13   29.20</time>
   <time name="total">   29.64   29.72</time>
   <energy>
    <i name="e_fr_energy">   -191.56405051 </i>
    <i name="e_wo_entrp">   -191.39251919 </i>
    <i name="e_0_energy">   -191.47828485 </i>
   </energy>
  </scstep>
  <scstep>
   <time name="dav">   28.54   28.61</time>
   <time name="total">   29.06   29.35</time>
   <energy>
    <i name="e_fr_energy">   -191.56403711 </i>
    <i name="e_wo_entrp">   -191.39222501 </i>
    <i name="e_0_energy">   -191.47813106 </i>
   </energy>
  </scstep>
  <scstep>
   <time name="dav">   27.18   27.25</time>
   <time name="total">   27.22   27.29</time>
   <energy>
    <i name="alphaZ">     90.23756408 </i>
    <i name="ewald">  44694.23791404 </i>
    <i name="hartreedc"> -50703.31812814 </i>
    <i name="XCdc">   -233.33594185 </i>
    <i name="pawpsdc">   4086.94481380 </i>
    <i name="pawaedc">  -3502.91142464 </i>
    <i name="eentropy">     -0.17195844 </i>
    <i name="bandstr">  -1384.68933993 </i>
    <i name="atom">   6761.44252427 </i>
    <i name="e_fr_energy">   -191.56397682 </i>
    <i name="e_wo_entrp">   -191.39201838 </i>
    <i name="e_0_energy">   -191.47799760 </i>
   </energy>
  </scstep>
  <structure>
   <crystal>
    <varray name="basis" >
     <v>       8.26844417       4.77226741       0.00000000 </v>
     <v>      -8.27703292       4.78711187       0.00000000 </v>
     <v>       0.00000000       0.00000000      30.00000000 </v>
    </varray>
    <i name="volume">   2372.46544856 </i>
    <varray name="rec_basis" >
     <v>       0.06053338       0.10466369       0.00000000 </v>
     <v>      -0.06034567       0.10455508       0.00000000 </v>
     <v>       0.00000000       0.00000000       0.03333333 </v>
    </varray>
   </crystal>
   <varray name="positions" >
    <v>       0.33870750       0.01034099      -0.00043855 </v>
    <v>      -0.00367942       0.65783281       0.00046273 </v>
    <v>       0.65922880       0.65377232       0.00036939 </v>
    <v>       0.66627040       0.32818945       0.00007453 </v>
    <v>       0.99871793       0.32624106       0.00000968 </v>
    <v>       0.32981831       0.33541950      -0.00009599 </v>
    <v>       0.00470664       0.01597815      -0.00034474 </v>
    <v>       0.32475609       0.64949396       0.00026424 </v>
    <v>       0.67937411       0.01937043      -0.00023308 </v>
    <v>       0.11118319       0.22222520       0.94556436 </v>
    <v>       0.22465378       0.10770017       0.05185451 </v>
    <v>       0.10826556       0.55848118       0.94816003 </v>
    <v>       0.22188605       0.44420128       0.05406396 </v>
    <v>       0.11312902       0.88654542       0.95161483 </v>
    <v>       0.21981094       0.78005197       0.04873347 </v>
    <v>       0.44114526       0.21601768       0.94822729 </v>
    <v>       0.54927564       0.10742746       0.05242150 </v>
    <v>       0.45046897       0.55882202       0.94753938 </v>
    <v>       0.55871655       0.45029972       0.05151585 </v>
    <v>       0.44178726       0.89046853       0.95090372 </v>
    <v>       0.55838074       0.77611816       0.04936821 </v>
    <v>       0.77806207       0.22269503       0.94581467 </v>
    <v>       0.88871201       0.11078085       0.05447793 </v>
    <v>       0.78070263       0.56115390       0.94960435 </v>
    <v>       0.89199385       0.45085382       0.05173802 </v>
    <v>       0.77509649       0.88371439       0.95013101 </v>
    <v>       0.88704408       0.77401901       0.04819857 </v>
   </varray>
  </structure>
  <varray name="forces" >
   <v>      -0.26286848       0.36114538       0.00907797 </v>
   <v>       0.22792022      -0.26993743       0.01890049 </v>
   <v>       0.26083722      -0.55076775      -0.04846361 </v>
   <v>       0.12683544      -0.01564817      -0.05351427 </v>
   <v>       0.09716611      -0.02042593      -0.07837724 </v>
   <v>      -0.16228623      -0.03950225      -0.01265504 </v>
   <v>      -0.31477871       0.34896979       0.04316106 </v>
   <v>       0.27203643      -0.52127432      -0.06745201 </v>
   <v>      -0.16670246       0.49688054       0.11607182 </v>
   <v>      -0.03417057       0.12063505      -0.25865815 </v>
   <v>      -0.09875279       0.03789466       0.09410752 </v>
   <v>       0.09504038      -0.10354573      -0.11256599 </v>
   <v>       0.02833435      -0.18239532       0.27302376 </v>
   <v>      -0.16441793       0.03396433       0.16797228 </v>
   <v>       0.12208252       0.01170021      -0.14757972 </v>
   <v>      -0.10982198       0.11929701      -0.07624105 </v>
   <v>       0.04228053       0.07169702       0.15090451 </v>
   <v>       0.03998783      -0.09092022      -0.17440195 </v>
   <v>       0.11651107      -0.17210552       0.12209561 </v>
   <v>       0.20867250       0.01020965       0.36061635 </v>
   <v>      -0.16598666       0.08470117      -0.35004047 </v>
   <v>      -0.07243135       0.21285629      -0.28967373 </v>
   <v>      -0.04124873       0.06126333       0.29863743 </v>
   <v>       0.04468339      -0.08974715      -0.05635901 </v>
   <v>       0.09966020      -0.11846294       0.09065839 </v>
   <v>      -0.08183543       0.08999617       0.21227130 </v>
   <v>      -0.10674686       0.11352213      -0.23151623 </v>
  </varray>
  <varray name="stress" >
   <v>      -0.03481725      -0.26057011       0.09889961 </v>
   <v>      -0.26057015       0.10417691      -0.46674405 </v>
   <v>       0.09889969      -0.46674412      -0.45219963 </v>
  </varray>
  <energy>
   <i name="e_fr_energy">   -191.56397682 </i>
   <i name="e_wo_entrp">   -191.47799760 </i>
   <i name="e_0_energy">     -0.17195844 </i>
  </energy>
  <time name="totalsc">  362.22  363.38</time>
 </calculation>
 <calculation>
  <scstep>
   <time name="dav">   21.72   21.77</time>
   <time name="total">   22.23   22.29</time>
   <energy>
    <i name="alphaZ">     90.20624214 </i>
    <i name="ewald">  44665.08039846 </i>
    <i name="hartreedc"> -50674.40062689 </i>
    <i name="XCdc">   -233.42619933 </i>
    <i name="pawpsdc">   4087.31969816 </i>
    <i name="pawaedc">  -3503.28309148 </i>
    <i name="eentropy">     -0.16573026 </i>
    <i name="bandstr">  -1384.45634070 </i>
    <i name="atom">   6761.44252427 </i>
    <i name="e_fr_energy">   -191.68312565 </i>
    <i name="e_wo_entrp">   -191.51739538 </i>
    <i name="e_0_energy">   -191.60026051 </i>
   </energy>
  </scstep>
  <scstep>
   <time name="dav">   31.23   31.30</time>
   <time name="total">   31.73   31.82</time>
   <energy>
    <i name="e_fr_energy">   -191.74676257 </i>
    <i name="e_wo_entrp">   -191.56156034 </i>
    <i name="e_0_energy">   -191.65416146 </i>
   </energy>
  </scstep>
  <scstep>
   <time name="dav">   30.68   30.75</time>
   <time name="total">   31.19   31.27</time>
   <energy>
    <i name="e_fr_energy">   -191.70195171 </i>
    <i name="e_wo_entrp">   -191.53578593 </i>
    <i name="e_0_energy">   -191.61886882 </i>
   </energy>
  </scstep>
  <scstep>
   <time name="dav">   28.95   29.03</time>
   <time name="total">   29.46   29.54</time>
   <energy>
    <i name="e_fr_energy">   -191.70184007 </i>
    <i name="e_wo_entrp">   -191.53284305 </i>
    <i name="e_0_energy">   -191.61734156 </i>
   </energy>
  </scstep>
  <scstep>
   <time name="dav">   29.13   29.21</time>
   <time name="total">   29.65   29.72</time>
   <energy>
    <i name="e_fr_energy">   -191.69850637 </i>
    <i name="e_wo_entrp">   -191.52961410 </i>
    <i name="e_0_energy">   -191.61406024 </i>
   </energy>
  </scstep>
  <scstep>
   <time name="dav">   28.53   28.60</time>
   <time name="total">   29.04   29.12</time>
   <energy>
    <i name="e_fr_energy">   -191.69836184 </i>
    <i name="e_wo_entrp">   -191.52897483 </i>
    <i name="e_0_energy">   -191.61366834 </i>
   </energy>
  </scstep>
  <scstep>
   <time name="dav">   28.73   28.80</time>
   <time name="total">   29.23   29.31</time>
   <energy>
    <i name="e_fr_energy">   -191.69785237 </i>
    <i name="e_wo_entrp">   -191.52911599 </i>
    <i name="e_0_energy">   -191.61348418 </i>
   </energy>
  </scstep>
  <scstep>
   <time name="dav">   23.94   23.99</time>
   <time name="total">   24.44   24.51</time>
   <energy>
    <i name="e_fr_energy">   -191.69760094 </i>
    <i name="e_wo_entrp">   -191.52855684 </i>
    <i name="e_0_energy">   -191.61307889 </i>
   </energy>
  </scstep>
  <scstep>
   <time name="dav">   17.81   17.85</time>
   <time name="total">   17.85   17.90</time>
   <energy>
    <i name="alphaZ">     90.20624214 </i>
    <i name="ewald">  44665.08039846 </i>
    <i name="hartreedc"> -50675.78913434 </i>
    <i name="XCdc">   -233.38918635 </i>
    <i name="pawpsdc">   4086.20259401 </i>
    <i name="pawaedc">  -3502.13497707 </i>
    <i name="eentropy">     -0.16878457 </i>
    <i name="bandstr">  -1383.14728133 </i>
    <i name="atom">   6761.44252427 </i>
    <i name="e_fr_energy">   -191.69760478 </i>
    <i name="e_wo_entrp">   -191.52882021 </i>
    <i name="e_0_energy">   -191.61321250 </i>
   </energy>
  </scstep>
  <structure>
   <crystal>
    <varray name="basis" >
     <v>       8.26514474       4.76834003       0.00000000 </v>
     <v>      -8.28022985       4.79443383       0.00000000 </v>
     <v>       0.00000000       0.00000000      30.00000000 </v>
    </varray>
    <i name="volume">   2373.28922980 </i>
    <varray name="rec_basis" >
     <v>       0.06060492       0.10466777       0.00000000 </v>
     <v>      -0.06027508       0.10447709       0.00000000 </v>
     <v>       0.00000000       0.00000000       0.03333333 </v>
    </varray>
   </crystal>
   <varray name="positions" >
    <v>       0.33973707       0.01287448      -0.00042210 </v>
    <v>      -0.00436218       0.65585010       0.00049155 </v>
    <v>       0.65725328       0.65030557       0.00029027 </v>
    <v>       0.66656094       0.32776580      -0.00001107 </v>
    <v>       0.99890102       0.32588470      -0.00011490 </v>
    <v>       0.32916440       0.33568203      -0.00011683 </v>
    <v>       0.00553157       0.01858155      -0.00027534 </v>
    <v>       0.32295966       0.64615584       0.00015654 </v>
    <v>       0.68133622       0.02227565      -0.00004688 </v>
    <v>       0.11168388       0.22291974       0.94517184 </v>
    <v>       0.22455236       0.10817325       0.05199010 </v>
    <v>       0.10802924       0.55769134       0.94799509 </v>
    <v>       0.22105996       0.44321539       0.05448062 </v>
    <v>       0.11282122       0.88719159       0.95188896 </v>
    <v>       0.22022575       0.77975557       0.04849057 </v>
    <v>       0.44142677       0.21693462       0.94812000 </v>
    <v>       0.54976345       0.10766431       0.05264558 </v>
    <v>       0.45012282       0.55825214       0.94727806 </v>
    <v>       0.55819007       0.44910030       0.05169707 </v>
    <v>       0.44244437       0.88991847       0.95148332 </v>
    <v>       0.55832030       0.77701893       0.04880449 </v>
    <v>       0.77891257       0.22395869       0.94537192 </v>
    <v>       0.88889629       0.11120126       0.05493410 </v>
    <v>       0.78037970       0.56057371       0.94952796 </v>
    <v>       0.89168694       0.44996901       0.05186839 </v>
    <v>       0.77531275       0.88440522       0.95047693 </v>
    <v>       0.88730401       0.77489518       0.04782366 </v>
   </varray>
  </structure>
  <varray name="forces" >
   <v>      -0.29560110       0.37156009      -0.00380118 </v>
   <v>       0.25846954      -0.30818560       0.06448346 </v>
   <v>       0.27443822      -0.53481132      -0.00549791 </v>
   <v>       0.13578498       0.01265800      -0.03206960 </v>
   <v>       0.06558576      -0.00411794      -0.03080290 </v>
   <v>      -0.15003474      -0.07399043       0.02994177 </v>
   <v>      -0.29583755       0.37903598       0.01818831 </v>
   <v>       0.27258040      -0.51780790      -0.00320265 </v>
   <v>      -0.20582585       0.51600846       0.02390813 </v>
   <v>      -0.02581746       0.09490729      -0.21879794 </v>
   <v>      -0.05142044       0.03846431       0.11969994 </v>
   <v>       0.04136359      -0.06709950      -0.16424218 </v>
   <v>       0.03549308      -0.13275927       0.20457994 </v>
   <v>      -0.11493703       0.03256147       0.22302362 </v>
   <v>       0.10219665       0.01296109      -0.21693037 </v>
   <v>      -0.07556187       0.08651328      -0.07542718 </v>
   <v>       0.00127850       0.06413592       0.14208027 </v>
   <v>       0.03980272      -0.07791114      -0.19025708 </v>
   <v>       0.08518782      -0.13619004       0.08575063 </v>
   <v>       0.15032342      -0.01089725       0.39306805 </v>
   <v>      -0.10458173       0.05758004      -0.37498756 </v>
   <v>      -0.04357880       0.13232131      -0.19626923 </v>
   <v>      -0.03449247       0.08149946       0.24895326 </v>
   <v>       0.02282180      -0.05122294      -0.08318725 </v>
   <v>       0.06239460      -0.08059830       0.07258732 </v>
   <v>      -0.06379213       0.04843004       0.25903489 </v>
   <v>      -0.08623991       0.06695489      -0.28982657 </v>
  </varray>
  <varray name="stress" >
   <v>      -0.00014018      -0.07558446       0.10365566 </v>
   <v>      -0.07558446       0.11147098      -0.26301456 </v>
   <v>       0.10365553      -0.26301452      -1.03096941 </v>
  </varray>
  <energy>
   <i name="e_fr_energy">   -191.69760478 </i>
   <i name="e_wo_entrp">   -191.61321250 </i>
   <i name="e_0_energy">     -0.16878457 </i>
  </energy>
  <time name="totalsc">  286.94  287.70</time>
 </calculation>
 <calculation>
  <scstep>
   <time name="dav">   21.74   21.79</time>
   <time name="total">   22.24   22.30</time>
   <energy>
    <i name="alphaZ">     90.15579590 </i>
    <i name="ewald">  44640.63162710 </i>
    <i name="hartreedc"> -50650.67158951 </i>
    <i name="XCdc">   -233.44080573 </i>
    <i name="pawpsdc">   4086.17766006 </i>
    <i name="pawaedc">  -3502.10990284 </i>
    <i name="eentropy">     -0.16264187 </i>
    <i name="bandstr">  -1383.84170252 </i>
    <i name="atom">   6761.44252427 </i>
    <i name="e_fr_energy">   -191.81903515 </i>
    <i name="e_wo_entrp">   -191.65639328 </i>
    <i name="e_0_energy">   -191.73771421 </i>
   </energy>
  </scstep>
  <scstep>
   <time name="dav">   31.04   31.11</time>
   <time name="total">   31.54   31.63</time>
   <energy>
    <i name="e_fr_energy">   -191.85988944 </i>
    <i name="e_wo_entrp">   -191.68553775 </i>
    <i name="e_0_energy">   -191.77271359 </i>
   </energy>
  </scstep>
  <scstep>
   <time name="dav">   30.71   30.78</time>
   <time name="total">   31.21   31.30</time>
   <energy>
    <i name="e_fr_energy">   -191.83800913 </i>
    <i name="e_wo_entrp">   -191.67676566 </i>
    <i name="e_0_energy">   -191.75738739 </i>
   </energy>
  </scstep>
  <scstep>
   <time name="dav">   28.95   29.02</time>
   <time name="total">   29.45   29.53</time>
   <energy>
    <i name="e_fr_energy">   -191.83490770 </i>
    <i name="e_wo_entrp">   -191.67059263 </i>
    <i name="e_0_energy">   -191.75275016 </i>
   </energy>
  </scstep>
  <scstep>
   <time name="dav">   29.94   30.02</time>
   <time name="total">   30.45   30.53</time>
   <energy>
    <i name="e_fr_energy">   -191.83408722 </i>
    <i name="e_wo_entrp">   -191.67001886 </i>
    <i name="e_0_energy">   -191.75205304 </i>
   </energy>
  </scstep>
  <scstep>
   <time name="dav">   28.97   29.04</time>
   <time name="total">   29.47   29.55</time>
   <energy>
    <i name="e_fr_energy">   -191.83342414 </i>
    <i name="e_wo_entrp">   -191.66925890 </i>
    <i name="e_0_energy">   -191.75134152 </i>
   </energy>
  </scstep>
  <scstep>
   <time name="dav">   26.47   26.53</time>
   <time name="total">   26.97   27.04</time>
   <energy>
    <i name="e_fr_energy">   -191.83260934 </i>
    <i name="e_wo_entrp">   -191.66851305 </i>
    <i name="e_0_energy">   -191.75056119 </i>
   </energy>
  </scstep>
  <scstep>
   <time name="dav">   21.16   21.22</time>
   <time name="total">   21.20   21.26</time>
   <energy>
    <i name="alphaZ">     90.15579590 </i>
    <i name="ewald">  44640.63162710 </i>
    <i name="hartreedc"> -50651.61035603 </i>
    <i name="XCdc">   -233.40199075 </i>
    <i name="pawpsdc">   4088.21133961 </i>
    <i name="pawaedc">  -3504.16011882 </i>
    <i name="eentropy">     -0.16409980 </i>
    <i name="bandstr">  -1382.93738314 </i>
    <i name="atom">   6761.44252427 </i>
    <i name="e_fr_energy">   -191.83266166 </i>
    <i name="e_wo_entrp">   -191.66856186 </i>
    <i name="e_0_energy">   -191.75061176 </i>
   </energy>
  </scstep>
  <structure>
   <crystal>
    <varray name="basis" >
     <v>       8.26525142       4.76876225       0.00000000 </v>
     <v>      -8.28223454       4.79814794       0.00000000 </v>
[...]
      <set comment="kpoint 31">
       <r>  -17.5334    1.0000 </r>
       <r>  -17.2899    1.0000 </r>
       <r>  -16.9153    1.0000 </r>
       <r>  -16.7087    1.0000 </r>
       <r>  -16.4891    1.0000 </r>
       <r>  -16.4282    1.0000 </r>
       <r>  -16.3461    1.0000 </r>
       <r>  -16.2314    1.0000 </r>
       <r>  -16.0865    1.0000 </r>
       <r>  -15.9891    1.0000 </r>
       <r>  -15.9515    1.0000 </r>
       <r>  -15.8726    1.0000 </r>
       <r>  -15.7648    1.0000 </r>
       <r>  -15.6655    1.0000 </r>
       <r>  -15.6333    1.0000 </r>
       <r>  -15.5387    1.0000 </r>
       <r>  -15.3202    1.0000 </r>
       <r>  -15.2392    1.0000 </r>
       <r>   -9.7950    1.0000 </r>
       <r>   -9.5095    1.0000 </r>
       <r>   -9.2912    1.0000 </r>
       <r>   -8.9835    1.0000 </r>
       <r>   -8.9540    1.0000 </r>
       <r>   -8.6629    1.0000 </r>
       <r>   -8.5313    1.0000 </r>
       <r>   -8.4605    1.0000 </r>
       <r>   -8.3846    1.0000 </r>
       <r>   -8.3237    1.0000 </r>
       <r>   -8.2865    1.0000 </r>
       <r>   -8.2572    1.0000 </r>
       <r>   -8.1643    1.0000 </r>
       <r>   -8.0989    1.0000 </r>
       <r>   -8.0419    1.0000 </r>
       <r>   -7.8826    1.0000 </r>
       <r>   -7.7922    1.0000 </r>
       <r>   -7.6773    1.0000 </r>
       <r>   -7.6239    1.0000 </r>
       <r>   -7.4319    1.0000 </r>
       <r>   -7.3088    1.0000 </r>
       <r>   -7.2473    1.0000 </r>
       <r>   -7.1561    1.0000 </r>
       <r>   -7.0961    1.0000 </r>
       <r>   -7.0487    1.0000 </r>
       <r>   -6.9100    1.0000 </r>
       <r>   -6.8243    1.0000 </r>
       <r>   -6.7790    1.0000 </r>
       <r>   -6.6439    1.0000 </r>
       <r>   -6.6042    1.0000 </r>
       <r>   -6.5176    1.0000 </r>
       <r>   -6.4703    1.0000 </r>
       <r>   -6.4408    1.0000 </r>
       <r>   -6.3725    1.0000 </r>
       <r>   -6.2712    1.0000 </r>
       <r>   -6.1933    1.0000 </r>
       <r>   -6.1203    1.0000 </r>
       <r>   -6.0875    1.0000 </r>
       <r>   -6.0121    1.0000 </r>
       <r>   -5.9103    1.0000 </r>
       <r>   -5.8636    1.0000 </r>
       <r>   -5.7284    1.0000 </r>
       <r>   -5.6889    1.0000 </r>
       <r>   -5.5939    1.0000 </r>
       <r>   -5.4986    1.0000 </r>
       <r>   -5.4135    1.0000 </r>
       <r>   -5.2932    1.0000 </r>
       <r>   -5.2002    1.0000 </r>
       <r>   -5.1076    1.0000 </r>
       <r>   -4.8309    1.0000 </r>
       <r>   -4.7942    1.0000 </r>
       <r>   -4.5986    1.0000 </r>
       <r>   -4.5794    1.0000 </r>
       <r>   -4.4355    1.0000 </r>
       <r>   -4.3401    1.0000 </r>
       <r>   -4.2366    1.0000 </r>
       <r>   -4.1436    1.0000 </r>
       <r>   -4.1108    1.0000 </r>
       <r>   -4.0244    1.0000 </r>
       <r>   -3.6795    0.9994 </r>
       <r>   -3.5300    0.9858 </r>
       <r>   -3.1081    0.2140 </r>
       <r>   -2.9620    0.0340 </r>
       <r>   -2.7820    0.0010 </r>
       <r>   -2.6825    0.0001 </r>
       <r>   -2.5410    0.0000 </r>
       <r>   -2.4593    0.0000 </r>
       <r>   -2.3665    0.0000 </r>
       <r>   -2.0778    0.0000 </r>
       <r>   -2.0231    0.0000 </r>
       <r>   -1.9954    0.0000 </r>
       <r>   -1.8794    0.0000 </r>
       <r>   -1.6888    0.0000 </r>
       <r>   -1.5872    0.0000 </r>
       <r>   -1.5164    0.0000 </r>
       <r>   -1.4093    0.0000 </r>
       <r>   -1.3055    0.0000 </r>
       <r>   -1.2184    0.0000 </r>
       <r>   -1.0696    0.0000 </r>
       <r>   -1.0486    0.0000 </r>
       <r>   -0.9668    0.0000 </r>
       <r>   -0.8895    0.0000 </r>
       <r>   -0.8413    0.0000 </r>
       <r>   -0.6987    0.0000 </r>
       <r>   -0.6534    0.0000 </r>
       <r>   -0.6191    0.0000 </r>
       <r>   -0.4245    0.0000 </r>
       <r>   -0.2779    0.0000 </r>
       <r>   -0.1510    0.0000 </r>
       <r>   -0.0197    0.0000 </r>
       <r>    0.0261    0.0000 </r>
       <r>    0.1203    0.0000 </r>
       <r>    0.4236    0.0000 </r>
       <r>    0.7122    0.0000 </r>
       <r>    0.8132    0.0000 </r>
       <r>    0.8806    0.0000 </r>
       <r>    1.0818    0.0000 </r>
       <r>    1.2362    0.0000 </r>
       <r>    1.2966    0.0000 </r>
       <r>    2.1298    0.0000 </r>
       <r>    2.3165    0.0000 </r>
       <r>    2.3867    0.0000 </r>
      </set>
      <set comment="kpoint 32">
       <r>  -17.5558    1.0000 </r>
       <r>  -17.1473    1.0000 </r>
       <r>  -17.0915    1.0000 </r>
       <r>  -16.7036    1.0000 </r>
       <r>  -16.4497    1.0000 </r>
       <r>  -16.3914    1.0000 </r>
       <r>  -16.2972    1.0000 </r>
       <r>  -16.2528    1.0000 </r>
       <r>  -16.1379    1.0000 </r>
       <r>  -16.0191    1.0000 </r>
       <r>  -15.9581    1.0000 </r>
       <r>  -15.8816    1.0000 </r>
       <r>  -15.7554    1.0000 </r>
       <r>  -15.6594    1.0000 </r>
       <r>  -15.6077    1.0000 </r>
       <r>  -15.4900    1.0000 </r>
       <r>  -15.3607    1.0000 </r>
       <r>  -15.2430    1.0000 </r>
       <r>   -9.6792    1.0000 </r>
       <r>   -9.6262    1.0000 </r>
       <r>   -9.4018    1.0000 </r>
       <r>   -8.9743    1.0000 </r>
       <r>   -8.7996    1.0000 </r>
       <r>   -8.5562    1.0000 </r>
       <r>   -8.5021    1.0000 </r>
       <r>   -8.4623    1.0000 </r>
       <r>   -8.4303    1.0000 </r>
       <r>   -8.3570    1.0000 </r>
       <r>   -8.2999    1.0000 </r>
       <r>   -8.2537    1.0000 </r>
       <r>   -8.2102    1.0000 </r>
       <r>   -8.1379    1.0000 </r>
       <r>   -8.0256    1.0000 </r>
       <r>   -7.9301    1.0000 </r>
       <r>   -7.8249    1.0000 </r>
       <r>   -7.7120    1.0000 </r>
       <r>   -7.5860    1.0000 </r>
       <r>   -7.5013    1.0000 </r>
       <r>   -7.3187    1.0000 </r>
       <r>   -7.2475    1.0000 </r>
       <r>   -7.1368    1.0000 </r>
       <r>   -7.0895    1.0000 </r>
       <r>   -7.0173    1.0000 </r>
       <r>   -6.9408    1.0000 </r>
       <r>   -6.8851    1.0000 </r>
       <r>   -6.7992    1.0000 </r>
       <r>   -6.6660    1.0000 </r>
       <r>   -6.5639    1.0000 </r>
       <r>   -6.4789    1.0000 </r>
       <r>   -6.4384    1.0000 </r>
       <r>   -6.3904    1.0000 </r>
       <r>   -6.3331    1.0000 </r>
       <r>   -6.2971    1.0000 </r>
       <r>   -6.2078    1.0000 </r>
       <r>   -6.1389    1.0000 </r>
       <r>   -6.0461    1.0000 </r>
       <r>   -5.9897    1.0000 </r>
       <r>   -5.8673    1.0000 </r>
       <r>   -5.8116    1.0000 </r>
       <r>   -5.7076    1.0000 </r>
       <r>   -5.6330    1.0000 </r>
       <r>   -5.5850    1.0000 </r>
       <r>   -5.4553    1.0000 </r>
       <r>   -5.4364    1.0000 </r>
       <r>   -5.3668    1.0000 </r>
       <r>   -5.2081    1.0000 </r>
       <r>   -5.1566    1.0000 </r>
       <r>   -4.8577    1.0000 </r>
       <r>   -4.7576    1.0000 </r>
       <r>   -4.6910    1.0000 </r>
       <r>   -4.4931    1.0000 </r>
       <r>   -4.4423    1.0000 </r>
       <r>   -4.3673    1.0000 </r>
       <r>   -4.2692    1.0000 </r>
       <r>   -4.1986    1.0000 </r>
       <r>   -4.0397    1.0000 </r>
       <r>   -3.9973    1.0000 </r>
       <r>   -3.6527    0.9989 </r>
       <r>   -3.5281    0.9853 </r>
       <r>   -3.1642    0.3462 </r>
       <r>   -2.9097    0.0141 </r>
       <r>   -2.8085    0.0018 </r>
       <r>   -2.7337    0.0003 </r>
       <r>   -2.5349    0.0000 </r>
       <r>   -2.4897    0.0000 </r>
       <r>   -2.3743    0.0000 </r>
       <r>   -2.1270    0.0000 </r>
       <r>   -2.0590    0.0000 </r>
       <r>   -2.0059    0.0000 </r>
       <r>   -1.9820    0.0000 </r>
       <r>   -1.6787    0.0000 </r>
       <r>   -1.5306    0.0000 </r>
       <r>   -1.4406    0.0000 </r>
       <r>   -1.3622    0.0000 </r>
       <r>   -1.2646    0.0000 </r>
       <r>   -1.2297    0.0000 </r>
       <r>   -1.0683    0.0000 </r>
       <r>   -1.0171    0.0000 </r>
       <r>   -0.9570    0.0000 </r>
       <r>   -0.8551    0.0000 </r>
       <r>   -0.8293    0.0000 </r>
       <r>   -0.7281    0.0000 </r>
       <r>   -0.6904    0.0000 </r>
       <r>   -0.5994    0.0000 </r>
       <r>   -0.4418    0.0000 </r>
       <r>   -0.2897    0.0000 </r>
       <r>   -0.1742    0.0000 </r>
       <r>   -0.0664    0.0000 </r>
       <r>    0.0021    0.0000 </r>
       <r>    0.1280    0.0000 </r>
       <r>    0.4115    0.0000 </r>
       <r>    0.6100    0.0000 </r>
       <r>    0.7696    0.0000 </r>
       <r>    0.9064    0.0000 </r>
       <r>    1.1294    0.0000 </r>
       <r>    1.2450    0.0000 </r>
       <r>    1.4412    0.0000 </r>
       <r>    2.1062    0.0000 </r>
       <r>    2.2798    0.0000 </r>
       <r>    2.5778    0.0000 </r>
      </set>
      <set comment="kpoint 33">
       <r>  -17.5498    1.0000 </r>
       <r>  -17.2340    1.0000 </r>
       <r>  -16.9563    1.0000 </r>
       <r>  -16.6965    1.0000 </r>
       <r>  -16.5184    1.0000 </r>
       <r>  -16.4527    1.0000 </r>
       <r>  -16.3594    1.0000 </r>
       <r>  -16.1689    1.0000 </r>
       <r>  -16.1236    1.0000 </r>
       <r>  -16.0312    1.0000 </r>
       <r>  -15.9318    1.0000 </r>
       <r>  -15.8708    1.0000 </r>
       <r>  -15.7394    1.0000 </r>
       <r>  -15.6608    1.0000 </r>
       <r>  -15.5840    1.0000 </r>
       <r>  -15.4605    1.0000 </r>
       <r>  -15.3804    1.0000 </r>
       <r>  -15.2837    1.0000 </r>
       <r>   -9.7434    1.0000 </r>
       <r>   -9.4742    1.0000 </r>
       <r>   -9.3644    1.0000 </r>
       <r>   -8.9664    1.0000 </r>
       <r>   -8.8966    1.0000 </r>
       <r>   -8.7573    1.0000 </r>
       <r>   -8.5823    1.0000 </r>
       <r>   -8.4944    1.0000 </r>
       <r>   -8.4348    1.0000 </r>
       <r>   -8.3286    1.0000 </r>
       <r>   -8.2839    1.0000 </r>
       <r>   -8.1982    1.0000 </r>
       <r>   -8.1418    1.0000 </r>
       <r>   -8.0625    1.0000 </r>
       <r>   -7.9663    1.0000 </r>
       <r>   -7.9102    1.0000 </r>
       <r>   -7.8111    1.0000 </r>
       <r>   -7.7269    1.0000 </r>
       <r>   -7.6308    1.0000 </r>
       <r>   -7.4853    1.0000 </r>
       <r>   -7.3477    1.0000 </r>
       <r>   -7.2372    1.0000 </r>
       <r>   -7.1636    1.0000 </r>
       <r>   -7.0529    1.0000 </r>
       <r>   -7.0380    1.0000 </r>
       <r>   -6.9410    1.0000 </r>
       <r>   -6.8569    1.0000 </r>
       <r>   -6.7716    1.0000 </r>
       <r>   -6.6433    1.0000 </r>
       <r>   -6.5942    1.0000 </r>
       <r>   -6.5408    1.0000 </r>
       <r>   -6.4375    1.0000 </r>
       <r>   -6.3787    1.0000 </r>
       <r>   -6.3431    1.0000 </r>
       <r>   -6.2806    1.0000 </r>
       <r>   -6.2033    1.0000 </r>
       <r>   -6.1154    1.0000 </r>
       <r>   -6.0387    1.0000 </r>
       <r>   -5.9784    1.0000 </r>
       <r>   -5.9536    1.0000 </r>
       <r>   -5.8377    1.0000 </r>
       <r>   -5.6930    1.0000 </r>
       <r>   -5.6398    1.0000 </r>
       <r>   -5.5750    1.0000 </r>
       <r>   -5.5242    1.0000 </r>
       <r>   -5.3847    1.0000 </r>
       <r>   -5.2837    1.0000 </r>
       <r>   -5.2213    1.0000 </r>
       <r>   -4.9626    1.0000 </r>
       <r>   -4.9000    1.0000 </r>
       <r>   -4.8313    1.0000 </r>
       <r>   -4.7061    1.0000 </r>
       <r>   -4.5153    1.0000 </r>
       <r>   -4.4483    1.0000 </r>
       <r>   -4.3568    1.0000 </r>
       <r>   -4.2675    1.0000 </r>
       <r>   -4.1920    1.0000 </r>
       <r>   -3.9772    1.0000 </r>
       <r>   -3.9323    1.0000 </r>
       <r>   -3.7111    0.9997 </r>
       <r>   -3.5742    0.9938 </r>
       <r>   -3.1492    0.3081 </r>
       <r>   -2.9618    0.0339 </r>
       <r>   -2.8723    0.0070 </r>
       <r>   -2.6973    0.0001 </r>
       <r>   -2.5799    0.0000 </r>
       <r>   -2.4875    0.0000 </r>
       <r>   -2.3815    0.0000 </r>
       <r>   -2.1649    0.0000 </r>
       <r>   -2.1168    0.0000 </r>
       <r>   -2.0667    0.0000 </r>
       <r>   -1.9428    0.0000 </r>
       <r>   -1.6688    0.0000 </r>
       <r>   -1.4655    0.0000 </r>
       <r>   -1.4024    0.0000 </r>
       <r>   -1.3117    0.0000 </r>
       <r>   -1.2617    0.0000 </r>
       <r>   -1.1992    0.0000 </r>
       <r>   -1.0804    0.0000 </r>
       <r>   -0.9809    0.0000 </r>
       <r>   -0.9429    0.0000 </r>
       <r>   -0.8725    0.0000 </r>
       <r>   -0.8428    0.0000 </r>
       <r>   -0.7768    0.0000 </r>
       <r>   -0.6736    0.0000 </r>
       <r>   -0.5428    0.0000 </r>
       <r>   -0.4446    0.0000 </r>
       <r>   -0.3368    0.0000 </r>
       <r>   -0.2510    0.0000 </r>
       <r>   -0.1075    0.0000 </r>
       <r>   -0.0331    0.0000 </r>
       <r>    0.1010    0.0000 </r>
       <r>    0.3937    0.0000 </r>
       <r>    0.5950    0.0000 </r>
       <r>    0.7268    0.0000 </r>
       <r>    0.9590    0.0000 </r>
       <r>    1.1854    0.0000 </r>
       <r>    1.2898    0.0000 </r>
       <r>    1.5913    0.0000 </r>
       <r>    2.1434    0.0000 </r>
       <r>    2.3073    0.0000 </r>
       <r>    2.4069    0.0000 </r>
      </set>
      <set comment="kpoint 34">
       <r>  -17.5381    1.0000 </r>
       <r>  -17.2896    1.0000 </r>
       <r>  -16.7952    1.0000 </r>
       <r>  -16.6916    1.0000 </r>
       <r>  -16.6775    1.0000 </r>
       <r>  -16.4748    1.0000 </r>
       <r>  -16.3503    1.0000 </r>
       <r>  -16.1619    1.0000 </r>
       <r>  -16.1176    1.0000 </r>
       <r>  -16.0194    1.0000 </r>
       <r>  -15.9116    1.0000 </r>
       <r>  -15.8601    1.0000 </r>
       <r>  -15.7352    1.0000 </r>
       <r>  -15.6607    1.0000 </r>
       <r>  -15.5657    1.0000 </r>
       <r>  -15.4623    1.0000 </r>
       <r>  -15.3661    1.0000 </r>
       <r>  -15.3249    1.0000 </r>
       <r>   -9.7826    1.0000 </r>
       <r>   -9.3339    1.0000 </r>
       <r>   -9.2389    1.0000 </r>
       <r>   -9.1131    1.0000 </r>
       <r>   -8.9611    1.0000 </r>
       <r>   -8.9000    1.0000 </r>
       <r>   -8.5899    1.0000 </r>
       <r>   -8.5267    1.0000 </r>
       <r>   -8.4481    1.0000 </r>
       <r>   -8.2881    1.0000 </r>
       <r>   -8.2566    1.0000 </r>
       <r>   -8.1831    1.0000 </r>
       <r>   -8.1237    1.0000 </r>
       <r>   -8.0203    1.0000 </r>
       <r>   -7.9735    1.0000 </r>
       <r>   -7.8599    1.0000 </r>
       <r>   -7.7459    1.0000 </r>
       <r>   -7.7287    1.0000 </r>
       <r>   -7.6031    1.0000 </r>
       <r>   -7.4888    1.0000 </r>
       <r>   -7.4111    1.0000 </r>
       <r>   -7.3242    1.0000 </r>
       <r>   -7.2014    1.0000 </r>
       <r>   -7.0284    1.0000 </r>
       <r>   -6.9956    1.0000 </r>
       <r>   -6.9158    1.0000 </r>
       <r>   -6.7513    1.0000 </r>
       <r>   -6.7081    1.0000 </r>
       <r>   -6.6397    1.0000 </r>
       <r>   -6.6119    1.0000 </r>
       <r>   -6.5292    1.0000 </r>
       <r>   -6.4746    1.0000 </r>
       <r>   -6.4361    1.0000 </r>
       <r>   -6.3532    1.0000 </r>
       <r>   -6.3242    1.0000 </r>
       <r>   -6.2647    1.0000 </r>
       <r>   -6.1726    1.0000 </r>
       <r>   -6.0511    1.0000 </r>
       <r>   -6.0224    1.0000 </r>
       <r>   -5.8283    1.0000 </r>
       <r>   -5.8075    1.0000 </r>
       <r>   -5.7190    1.0000 </r>
       <r>   -5.6905    1.0000 </r>
       <r>   -5.5573    1.0000 </r>
       <r>   -5.5423    1.0000 </r>
       <r>   -5.4047    1.0000 </r>
       <r>   -5.2230    1.0000 </r>
       <r>   -5.0673    1.0000 </r>
       <r>   -5.0328    1.0000 </r>
       <r>   -4.9455    1.0000 </r>
       <r>   -4.8398    1.0000 </r>
       <r>   -4.6463    1.0000 </r>
       <r>   -4.5368    1.0000 </r>
       <r>   -4.4478    1.0000 </r>
       <r>   -4.3208    1.0000 </r>
       <r>   -4.2714    1.0000 </r>
       <r>   -4.2065    1.0000 </r>
       <r>   -3.9810    1.0000 </r>
       <r>   -3.8524    1.0000 </r>
       <r>   -3.7764    1.0000 </r>
       <r>   -3.6069    0.9969 </r>
       <r>   -3.1016    0.2009 </r>
       <r>   -3.0110    0.0695 </r>
       <r>   -2.9202    0.0170 </r>
       <r>   -2.6590    0.0000 </r>
       <r>   -2.6181    0.0000 </r>
       <r>   -2.4810    0.0000 </r>
       <r>   -2.3864    0.0000 </r>
       <r>   -2.1902    0.0000 </r>
       <r>   -2.1334    0.0000 </r>
       <r>   -2.0724    0.0000 </r>
       <r>   -1.9258    0.0000 </r>
       <r>   -1.6615    0.0000 </r>
       <r>   -1.4276    0.0000 </r>
       <r>   -1.4024    0.0000 </r>
       <r>   -1.2986    0.0000 </r>
       <r>   -1.2489    0.0000 </r>
       <r>   -1.1857    0.0000 </r>
       <r>   -1.0891    0.0000 </r>
       <r>   -0.9884    0.0000 </r>
       <r>   -0.9393    0.0000 </r>
       <r>   -0.8867    0.0000 </r>
       <r>   -0.8463    0.0000 </r>
       <r>   -0.7945    0.0000 </r>
       <r>   -0.5922    0.0000 </r>
       <r>   -0.5556    0.0000 </r>
       <r>   -0.4432    0.0000 </r>
       <r>   -0.3719    0.0000 </r>
       <r>   -0.3096    0.0000 </r>
       <r>   -0.1299    0.0000 </r>
       <r>   -0.0366    0.0000 </r>
       <r>    0.0843    0.0000 </r>
       <r>    0.3757    0.0000 </r>
       <r>    0.6213    0.0000 </r>
       <r>    0.7079    0.0000 </r>
       <r>    0.9817    0.0000 </r>
       <r>    1.2057    0.0000 </r>
       <r>    1.3276    0.0000 </r>
       <r>    1.6558    0.0000 </r>
       <r>    2.2285    0.0000 </r>
       <r>    2.2575    0.0000 </r>
       <r>    2.3979    0.0000 </r>
      </set>
     </set>
    </set>
   </array>
  </eigenvalues>
  <separator name="orbital magnetization" >
   <v name="MAGDIPOLOUT">      0.00000000      0.00000000      0.00000000</v>
  </separator>
 </calculation>
 <structure name="finalpos" >
  <crystal>
   <varray name="basis" >
    <v>       8.31078732       4.79245741       0.00000000 </v>
    <v>      -8.32914528       4.82415241       0.00000000 </v>
    <v>       0.00000000       0.00000000      30.00000000 </v>
   </varray>
   <i name="volume">   2400.28736242 </i>
   <varray name="rec_basis" >
    <v>       0.06029469       0.10410185       0.00000000 </v>
    <v>      -0.05989855       0.10387240       0.00000000 </v>
    <v>       0.00000000       0.00000000       0.03333333 </v>
   </varray>
  </crystal>
  <varray name="positions" >
   <v>       0.35265544       0.03819159       0.00239254 </v>
   <v>      -0.01598072       0.63416738      -0.00143504 </v>
   <v>       0.64744012       0.62702552      -0.00234724 </v>
   <v>       0.68330810       0.32936180      -0.00013705 </v>
   <v>       0.99935628       0.32830472      -0.00026689 </v>
   <v>       0.31363463       0.33340967      -0.00008412 </v>
   <v>       0.01488781       0.03517762       0.00142465 </v>
   <v>       0.31284671       0.63060005      -0.00133645 </v>
   <v>       0.68867412       0.03681202       0.00171086 </v>
   <v>       0.11050703       0.22575771       0.94338529 </v>
   <v>       0.22477631       0.11327387       0.05495336 </v>
   <v>       0.10699266       0.55590095       0.94522429 </v>
   <v>       0.21696476       0.44036790       0.05615468 </v>
   <v>       0.11424264       0.88955067       0.95758912 </v>
   <v>       0.22087110       0.78009452       0.04370324 </v>
   <v>       0.44608665       0.22576913       0.94943992 </v>
   <v>       0.55587278       0.11366143       0.05535131 </v>
   <v>       0.44424019       0.55217721       0.94496527 </v>
   <v>       0.55331204       0.43954415       0.05020642 </v>
   <v>       0.44262519       0.89066275       0.95718311 </v>
   <v>       0.55845213       0.77614222       0.04312321 </v>
   <v>       0.78220976       0.22555621       0.94361397 </v>
   <v>       0.89042596       0.11408130       0.05724030 </v>
   <v>       0.78003439       0.55536187       0.94648870 </v>
   <v>       0.89232164       0.44760400       0.05389693 </v>
   <v>       0.77545464       0.88482079       0.95516654 </v>
   <v>       0.88600209       0.77483739       0.04239300 </v>
  </varray>
 </structure>
</modeling>
