unknown system                          
           1
     8.855545    5.105206    0.000000
    -8.855787    5.105624    0.000000
     0.000000    0.000000   30.000000
   V    Mo   W    S 
   3   3   3  18
Direct configuration=     1
   0.66666669  0.33333334  0.00000000
   0.00000000  0.00000000  0.00000000
   0.33333334  0.66666669  0.00000000
   1.00000000  0.33333334  0.00000000
   0.33333334  0.00000000  0.00000000
   0.00000000  0.66666669  0.00000000
   0.33333334  0.33333334  0.00000000
   0.66666669  0.00000000  0.00000000
   0.66666669  0.66666669  0.00000000
   0.11068511  0.22244981  0.95539999
   0.22244981  0.11068511  0.04460000
   0.11068511  0.55578315  0.95539999
   0.22244981  0.44401845  0.04460000
   0.11068511  0.88911647  0.95539999
   0.22244981  0.77735180  0.04460000
   0.44401845  0.22244981  0.95539999
   0.55578315  0.11068511  0.04460000
   0.44401845  0.55578315  0.95539999
   0.55578315  0.44401845  0.04460000
   0.44401845  0.88911647  0.95539999
   0.55578315  0.77735180  0.04460000
   0.77735180  0.22244981  0.95539999
   0.88911647  0.11068511  0.04460000
   0.77735180  0.55578315  0.95539999
   0.88911647  0.44401845  0.04460000
   0.77735180  0.88911647  0.95539999
   0.88911647  0.77735180  0.04460000
unknown system                          
           1
     8.668149    4.999377    0.000000
    -8.668364    4.999748    0.000000
     0.000000    0.000000   30.000000
   V    Mo   W    S 
   3   3   3  18
Direct configuration=     2
   0.66788143  0.33334746 -0.00000627
   0.00118569 -0.00005417  0.00000325
   0.33097365  0.66675559  0.00000316
   0.99991771  0.33473174  0.00006528
   0.33194967 -0.00139029 -0.00006326
   0.00139458  0.66659505 -0.00000320
   0.33179534  0.33177704 -0.00004638
   0.66660004  0.00156503  0.00004971
   0.66819743  0.66659350 -0.00000221
   0.10970829  0.21799029  0.95192419
   0.21796146  0.10968748  0.04811382
   0.11559800  0.55771219  0.95186652
   0.22489751  0.44855360  0.04807995
   0.10857649  0.89126724  0.95198700
   0.22460244  0.77523706  0.04806535
   0.44852968  0.22489082  0.95196198
   0.55819525  0.11516979  0.04809795
   0.44230048  0.55756664  0.95202294
   0.55755812  0.44229789  0.04802330
   0.44302956  0.88460435  0.95193035
   0.55158331  0.77579678  0.04804784
   0.77473234  0.22365151  0.95194422
   0.89029665  0.10803726  0.04795773
   0.77489257  0.55127226  0.95192087
   0.88422145  0.44207401  0.04807741
   0.78155777  0.89063117  0.95190219
   0.89007756  0.78185316  0.04807621
unknown system                          
           1
     8.487136    4.899887    0.000000
    -8.487096    4.899816    0.000000
     0.000000    0.000000   30.000000
   V    Mo   W    S 
   3   3   3  18
Direct configuration=     3
   0.66825836  0.33335082 -0.00000190
   0.00156451 -0.00005740 -0.00000186
   0.33022240  0.66675442  0.00000388
   0.99991570  0.33514594  0.00011188
   0.33154906 -0.00178105 -0.00010879
   0.00179780  0.66658399 -0.00000435
   0.33136443  0.33133304 -0.00010259
   0.66659496  0.00198582  0.00010748
   0.66862023  0.66660374 -0.00000359
   0.10986335  0.21799899  0.95193636
   0.21794192  0.10983003  0.04815367
   0.11574282  0.55780607  0.95177054
   0.22511486  0.44855623  0.04806520
   0.10851802  0.89129447  0.95192629
   0.22465251  0.77517720  0.04817093
   0.44850177  0.22508956  0.95202259
   0.55838148  0.11516090  0.04808470
   0.44238803  0.55748956  0.95214038
   0.55748121  0.44235761  0.04796087
   0.44320314  0.88460015  0.95193876
   0.55172525  0.77583798  0.04792026
   0.77456626  0.22347782  0.95189471
   0.89007626  0.10787596  0.04790617
   0.77470825  0.55128067  0.95192711
   0.88409887  0.44201344  0.04813135
   0.78143950  0.89060393  0.95197839
   0.88992350  0.78184456  0.04807145
unknown system                          
           1
     8.278241    4.778929    0.000000
    -8.277680    4.777955    0.000000
     0.000000    0.000000   30.000000
   V    Mo   W    S 
   3   3   3  18
Direct configuration=     4
   0.66964519  0.33335927  0.00001150
   0.00294655 -0.00008112 -0.00001259
   0.32747984  0.66672986  0.00000138
   0.99984039  0.33650673  0.00023129
   0.33013430 -0.00310168 -0.00022783
   0.00312151  0.66654293 -0.00000428
   0.32996820  0.32984107 -0.00026838
   0.66662971  0.00336837  0.00027452
   0.67001010  0.66664018 -0.00000518
   0.10906805  0.21690660  0.95052426
   0.21678496  0.10914984  0.04977950
   0.11697401  0.55848190  0.94995234
   0.22592039  0.44967403  0.04946434
   0.10783415  0.89164186  0.95025766
   0.22518655  0.77463007  0.05002169
   0.44954550  0.22571568  0.95081336
   0.55879936  0.11625337  0.04949840
   0.44200437  0.55797490  0.95115021
   0.55779499  0.44175406  0.04918673
   0.44277613  0.88348841  0.95052055
   0.55078144  0.77524564  0.04887708
   0.77410354  0.22405824  0.95023477
   0.89051695  0.10737883  0.04914218
   0.77427408  0.55021164  0.95047535
   0.88294195  0.44157276  0.04978022
   0.78244460  0.89133537  0.95079941
   0.89068765  0.78293565  0.04952140
unknown system                          
           1
     8.265614    4.772462    0.000000
    -8.265216    4.771769    0.000000
     0.000000    0.000000   30.000000
   V    Mo   W    S 
   3   3   3  18
Direct configuration=     5
   0.67249520  0.33357424  0.00002694
   0.00560295 -0.00033404 -0.00001826
   0.32228512  0.66670379 -0.00000801
   0.99950623  0.33903388  0.00028982
   0.32721046 -0.00562708 -0.00029314
   0.00539411  0.66651089  0.00000539
   0.32715473  0.32672553 -0.00042623
   0.66683544  0.00625609  0.00042332
   0.67315927  0.66670349  0.00000095
   0.10762301  0.21582538  0.94863724
   0.21562317  0.10807333  0.05200002
   0.11785077  0.55904424  0.94732290
   0.22636600  0.45074783  0.05134052
   0.10717351  0.89147069  0.94784428
   0.22540069  0.77419588  0.05267853
   0.45046105  0.22568865  0.94923146
   0.55846412  0.11735165  0.05138981
   0.44144712  0.55851627  0.95004998
   0.55799277  0.44079479  0.05067575
   0.44215502  0.88246414  0.94863508
   0.54952362  0.77461863  0.04996195
   0.77411333  0.22504345  0.94799611
   0.89139023  0.10753046  0.05073855
   0.77474207  0.54922763  0.94846992
   0.88227482  0.44168323  0.05217598
   0.78379942  0.89244036  0.94933724
   0.89217022  0.78395106  0.05151380
unknown system                          
           1
     8.270119    4.774952    0.000000
    -8.269697    4.774219    0.000000
     0.000000    0.000000   30.000000
   V    Mo   W    S 
   3   3   3  18
Direct configuration=     6
   0.67395692  0.33411925  0.00006971
   0.00650647 -0.00089254 -0.00006901
   0.32037130  0.66670548 -0.00000030
   0.99927314  0.33987221  0.00028600
   0.32618857 -0.00642449 -0.00028305
   0.00545852  0.66646655  0.00000104
   0.32605538  0.32551286 -0.00047631
   0.66688838  0.00743659  0.00047728
   0.67499924  0.66668953 -0.00000524
   0.10712622  0.21585940  0.94852396
   0.21565789  0.10780636  0.05229984
   0.11748131  0.55901109  0.94694062
   0.22606617  0.45058381  0.05144633
   0.10723010  0.89098910  0.94753023
   0.22507627  0.77423033  0.05305095
   0.45013891  0.22507002  0.94924987
   0.55792137  0.11732414  0.05149158
   0.44136672  0.55849032  0.95030498
   0.55787098  0.44048753  0.05063916
   0.44203295  0.88263973  0.94852070
   0.54945110  0.77465014  0.04971619
   0.77441576  0.22533477  0.94771948
   0.89167127  0.10815673  0.05071738
   0.77546007  0.54936458  0.94823569
   0.88280753  0.44216404  0.05248761
   0.78399897  0.89274637  0.94935949
   0.89274293  0.78382057  0.05176571
unknown system                          
           1
     8.248352    4.761628    0.000000
    -8.248583    4.762025    0.000000
     0.000000    0.000000   30.000000
   V    Mo   W    S 
   3   3   3  18
Direct configuration=     7
   0.67438980  0.33433000  0.00008098
   0.00674000 -0.00110629 -0.00007889
   0.31988656  0.66671007 -0.00000115
   0.99922822  0.34006443  0.00027625
   0.32593126 -0.00661248 -0.00027454
   0.00536364  0.66647800  0.00000173
   0.32567495  0.32512602 -0.00049457
   0.66688200  0.00778498  0.00049533
   0.67562874  0.66671095 -0.00000455
   0.10702338  0.21585335  0.94858287
   0.21566505  0.10776907  0.05228646
   0.11737944  0.55899965  0.94694626
   0.22600574  0.45053275  0.05139051
   0.10725216  0.89089422  0.94753902
   0.22498406  0.77423654  0.05304392
   0.45005956  0.22494310  0.94934358
   0.55781637  0.11732731  0.05143403
   0.44139704  0.55848787  0.95046125
   0.55785009  0.44045921  0.05055408
   0.44202833  0.88269103  0.94857676
   0.54948415  0.77465571  0.04956383
   0.77446496  0.22537461  0.94773414
   0.89171699  0.10827557  0.05061892
   0.77558401  0.54939069  0.94823013
   0.88293253  0.44226540  0.05248201
   0.78401075  0.89277486  0.94944249
   0.89283469  0.78379782  0.05176907
unknown system                          
           1
     8.279331    4.780355    0.000000
    -8.278574    4.779041    0.000000
     0.000000    0.000000   30.000000
   V    Mo   W    S 
   3   3   3  18
Direct configuration=     8
   0.67401300  0.33405450  0.00007807
   0.00671306 -0.00081778 -0.00006901
   0.32003727  0.66668108 -0.00000553
   0.99935363  0.33995202  0.00026510
   0.32583298 -0.00662356 -0.00026972
   0.00581184  0.66664020  0.00000285
   0.32585100  0.32528543 -0.00047384
   0.66701909  0.00744029  0.00047245
   0.67510105  0.66686074  0.00000219
   0.10705420  0.21590644  0.94845071
   0.21564138  0.10773209  0.05239444
   0.11741210  0.55897779  0.94680332
   0.22595896  0.45055217  0.05154419
   0.10721612  0.89087371  0.94741657
   0.22502074  0.77425228  0.05319199
   0.44999027  0.22485901  0.94915081
   0.55775162  0.11719661  0.05158454
   0.44127404  0.55845257  0.95024649
   0.55781386  0.44040727  0.05072154
   0.44198882  0.88268439  0.94843505
   0.54938402  0.77469422  0.04978175
   0.77453802  0.22537351  0.94759413
   0.89175706  0.10832536  0.05079403
   0.77569755  0.54948250  0.94815564
   0.88299820  0.44232843  0.05263118
   0.78410724  0.89286635  0.94929009
   0.89287735  0.78377685  0.05181087
unknown system                          
           1
     8.271307    4.775803    0.000000
    -8.270286    4.774033    0.000000
     0.000000    0.000000   30.000000
   V    Mo   W    S 
   3   3   3  18
Direct configuration=     9
   0.67601583  0.33506445  0.00011439
   0.00762452 -0.00186003 -0.00011360
   0.31801083  0.66673616  0.00000058
   0.99900935  0.34088585  0.00026235
   0.32502705 -0.00735423 -0.00026156
   0.00508452  0.66641146  0.00000334
   0.32432662  0.32374230 -0.00056964
   0.66680113  0.00915572  0.00057049
   0.67787385  0.66668023 -0.00000494
   0.10657751  0.21571149  0.94860919
   0.21558745  0.10756832  0.05242948
   0.11716784  0.55903573  0.94675955
   0.22589424  0.45049077  0.05136138
   0.10726960  0.89061799  0.94737565
   0.22473194  0.77419959  0.05322438
   0.44996818  0.22462510  0.94952077
   0.55751838  0.11751373  0.05140707
   0.44147270  0.55855526  0.95086361
   0.55783298  0.44029534  0.05040386
   0.44196194  0.88273120  0.94859599
   0.54948908  0.77459180  0.04916539
   0.77457642  0.22559950  0.94760670
   0.89191553  0.10860614  0.05043871
   0.77593400  0.54931926  0.94804206
   0.88318138  0.44252869  0.05264383
   0.78413587  0.89292612  0.94958558
   0.89322572  0.78383654  0.05196529
unknown system                          
           1
     8.272677    4.776512    0.000000
    -8.271135    4.773839    0.000000
     0.000000    0.000000   30.000000
   V    Mo   W    S 
   3   3   3  18
Direct configuration=    10
   0.67662764  0.33528423  0.00013435
   0.00806567 -0.00207853 -0.00012613
   0.31724906  0.66671940 -0.00000670
   0.99895936  0.34113368  0.00026214
   0.32450568 -0.00765324 -0.00025854
   0.00513275  0.66651280  0.00000289
   0.32367274  0.32307485 -0.00059255
   0.66687542  0.00965280  0.00059327
   0.67871903  0.66681308 -0.00000930
   0.10634162  0.21560594  0.94853813
   0.21550564  0.10744677  0.05256605
   0.11708313  0.55903186  0.94659162
   0.22585022  0.45048757  0.05143175
   0.10723734  0.89051115  0.94723220
   0.22465172  0.77421125  0.05339963
   0.44989406  0.22445097  0.94950836
   0.55735498  0.11753990  0.05147117
   0.44146799  0.55856858  0.95095457
   0.55780632  0.44022601  0.05041170
   0.44192211  0.88274539  0.94853529
   0.54944718  0.77456447  0.04909179
   0.77465076  0.22568602  0.94746925
   0.89204158  0.10874716  0.05043819
   0.77611746  0.54932085  0.94790770
   0.88332896  0.44266493  0.05278483
   0.78425770  0.89303941  0.94957230
   0.89344833  0.78390715  0.05209594
unknown system                          
           1
     8.261138    4.770046    0.000000
    -8.260620    4.769146    0.000000
     0.000000    0.000000   30.000000
   V    Mo   W    S 
   3   3   3  18
Direct configuration=    11
   0.67810127  0.33602256  0.00016015
   0.00881343 -0.00283622 -0.00015370
   0.31569651  0.66674687 -0.00000366
   0.99881585  0.34178761  0.00025859
   0.32380242 -0.00824200 -0.00025679
   0.00472453  0.66647390  0.00000416
   0.32235314  0.32182228 -0.00066554
   0.66670532  0.01087060  0.00066707
   0.68080674  0.66680716 -0.00000921
   0.10598127  0.21541916  0.94861661
   0.21543759  0.10733177  0.05261826
   0.11693271  0.55906872  0.94652248
   0.22584244  0.45047564  0.05134252
   0.10725155  0.89034288  0.94716877
   0.22446004  0.77417174  0.05346368
   0.44986725  0.22432058  0.94973003
   0.55718851  0.11775853  0.05140269
   0.44162482  0.55863993  0.95137224
   0.55780512  0.44018481  0.05022092
   0.44192892  0.88275458  0.94861192
   0.54953332  0.77449512  0.04867552
   0.77468970  0.22581334  0.94742124
   0.89212498  0.10888429  0.05020707
   0.77627678  0.54921636  0.94776682
   0.88347862  0.44282354  0.05285580
   0.78428204  0.89307553  0.94976487
   0.89368958  0.78398519  0.05223740
unknown system                          
           1
     8.281794    4.782053    0.000000
    -8.279517    4.778106    0.000000
     0.000000    0.000000   30.000000
   V    Mo   W    S 
   3   3   3  18
Direct configuration=    12
   0.67668223  0.33522231  0.00014244
   0.00815761 -0.00202457 -0.00013444
   0.31695609  0.66671773 -0.00000643
   0.99897675  0.34129779  0.00025703
   0.32431096 -0.00783095 -0.00025584
   0.00531680  0.66652677  0.00000300
   0.32361210  0.32295161 -0.00060515
   0.66697075  0.00972315  0.00060843
   0.67889907  0.66686477 -0.00000713
   0.10639875  0.21568454  0.94855516
   0.21551334  0.10744654  0.05257877
   0.11707431  0.55904927  0.94657739
   0.22579460  0.45044675  0.05141911
   0.10724665  0.89047010  0.94721285
   0.22462680  0.77419059  0.05341435
   0.44979303  0.22434102  0.94952220
   0.55732417  0.11744380  0.05143497
   0.44143030  0.55852251  0.95099350
   0.55778653  0.44020841  0.05038905
   0.44189988  0.88279216  0.94855732
   0.54944168  0.77460121  0.04906081
   0.77466839  0.22568725  0.94747170
   0.89205655  0.10885275  0.05043366
   0.77617456  0.54940294  0.94793779
   0.88339277  0.44271238  0.05278994
   0.78428312  0.89307625  0.94957402
   0.89342665  0.78383735  0.05207539
unknown system                          
           1
     8.278624    4.780280    0.000000
    -8.275979    4.775697    0.000000
     0.000000    0.000000   30.000000
   V    Mo   W    S 
   3   3   3  18
Direct configuration=    13
   0.67885974  0.33632864  0.00017848
   0.00923023 -0.00314748 -0.00017133
   0.31473863  0.66674739 -0.00000590
   0.99876446  0.34218081  0.00025003
   0.32329309 -0.00862859 -0.00024823
   0.00472176  0.66648138  0.00000300
   0.32163640  0.32107799 -0.00068482
   0.66675963  0.01150529  0.00069033
   0.68187268  0.66690120 -0.00001253
   0.10569087  0.21528673  0.94854232
   0.21535805  0.10721590  0.05277173
   0.11687916  0.55910627  0.94636004
   0.22584784  0.45052290  0.05138707
   0.10721543  0.89021050  0.94700870
   0.22437489  0.77414097  0.05362923
   0.44984780  0.22415863  0.94975591
   0.55701749  0.11786215  0.05145043
   0.44163650  0.55870101  0.95153539
   0.55778902  0.44010515  0.05019456
   0.44187118  0.88271356  0.94857610
   0.54945730  0.77441243  0.04853096
   0.77473509  0.22591990  0.94729133
   0.89227601  0.10904143  0.05018836
   0.77642768  0.54914423  0.94761901
   0.88358978  0.44295893  0.05299530
   0.78439129  0.89318606  0.94976065
   0.89393247  0.78408110  0.05240378
unknown system                          
           1
     8.275236    4.778386    0.000000
    -8.271618    4.772118    0.000000
     0.000000    0.000000   30.000000
   V    Mo   W    S 
   3   3   3  18
Direct configuration=    14
   0.67953798  0.33665938  0.00019047
   0.00956979 -0.00348216 -0.00018297
   0.31406241  0.66675705 -0.00000603
   0.99869268  0.34244065  0.00025099
   0.32297296 -0.00886874 -0.00024956
   0.00458357  0.66647051  0.00000345
   0.32100357  0.32047879 -0.00071523
   0.66670383  0.01206441  0.00072253
   0.68274362  0.66692650 -0.00001379
   0.10552486  0.21519157  0.94855908
   0.21532611  0.10716433  0.05280814
   0.11681576  0.55911232  0.94632040
   0.22586115  0.45053033  0.05135646
   0.10721986  0.89013572  0.94697227
   0.22430550  0.77413717  0.05366824
   0.44982785  0.22411513  0.94984862
   0.55694617  0.11795826  0.05143040
   0.44170379  0.55872900  0.95171645
   0.55779028  0.44010578  0.05011223
   0.44187310  0.88270558  0.94860504
   0.54949002  0.77437931  0.04835549
   0.77475452  0.22596902  0.94726056
   0.89229795  0.10908636  0.05009443
   0.77649396  0.54909549  0.94755380
   0.88366349  0.44303061  0.05303024
   0.78440036  0.89319270  0.94983577
   0.89404934  0.78412935  0.05247242
unknown system                          
           1
     8.277965    4.779907    0.000000
    -8.273974    4.772993    0.000000
     0.000000    0.000000   30.000000
   V    Mo   W    S 
   3   3   3  18
Direct configuration=    15
   0.68136246  0.33759191  0.00022064
   0.01048061 -0.00442743 -0.00021080
   0.31232958  0.66678178 -0.00000673
   0.99851316  0.34308499  0.00025295
   0.32217750 -0.00946002 -0.00025181
   0.00411475  0.66645838  0.00000524
   0.31929044  0.31890800 -0.00079371
   0.66647887  0.01354323  0.00080341
   0.68508692  0.66697204 -0.00001743
   0.10503406  0.21489228  0.94859868
   0.21523451  0.10701906  0.05290523
   0.11663546  0.55912040  0.94621816
   0.22590698  0.45055239  0.05128279
   0.10722832  0.88994265  0.94687382
   0.22411489  0.77413370  0.05376882
   0.44980999  0.22403375  0.95009209
   0.55675592  0.11825921  0.05139420
   0.44190534  0.55881667  0.95219259
   0.55779002  0.44010417  0.04990001
   0.44189366  0.88268208  0.94866956
   0.54959304  0.77428327  0.04788995
   0.77480657  0.22610498  0.94716992
   0.89235556  0.10916616  0.04983911
   0.77666661  0.54894222  0.94735440
   0.88385414  0.44321819  0.05313267
   0.78441839  0.89320930  0.95004247
   0.89437668  0.78428107  0.05267364
unknown system                          
           1
     8.292111    4.787933    0.000000
    -8.287788    4.780445    0.000000
     0.000000    0.000000   30.000000
   V    Mo   W    S 
   3   3   3  18
Direct configuration=    16
   0.68198242  0.33791943  0.00023047
   0.01080092 -0.00475896 -0.00021824
   0.31179450  0.66678211 -0.00000773
   0.99844268  0.34324344  0.00024991
   0.32188219 -0.00962093 -0.00024956
   0.00395734  0.66649304  0.00000561
   0.31867971  0.31834524 -0.00081047
   0.66643034  0.01402837  0.00082097
   0.68585404  0.66702960 -0.00001889
   0.10480830  0.21475005  0.94858069
   0.21518558  0.10694665  0.05296662
   0.11655295  0.55910732  0.94615515
   0.22592499  0.45056278  0.05128358
   0.10721605  0.88986215  0.94681507
   0.22404248  0.77414730  0.05383270
   0.44981585  0.22400302  0.95015102
   0.55666655  0.11838337  0.05141286
   0.44197748  0.55885060  0.95233836
   0.55777763  0.44009552  0.04984599
   0.44190426  0.88267446  0.94866853
   0.54962222  0.77424384  0.04775175
   0.77483748  0.22616386  0.94710804
   0.89239791  0.10918813  0.04977385
   0.77675063  0.54887617  0.94725928
   0.88393536  0.44330305  0.05319535
   0.78444072  0.89323421  0.95009205
   0.89453386  0.78436062  0.05276694
unknown system                          
           1
     8.289676    4.786939    0.000000
    -8.283273    4.775847    0.000000
     0.000000    0.000000   30.000000
   V    Mo   W    S 
   3   3   3  18
Direct configuration=    17
   0.68211607  0.33807327  0.00022744
   0.01079251 -0.00491579 -0.00022001
   0.31155488  0.66681140 -0.00000359
   0.99853411  0.34345508  0.00024508
   0.32190068 -0.00978834 -0.00024740
   0.00384812  0.66644229  0.00000607
   0.31861885  0.31832791 -0.00081256
   0.66628367  0.01411514  0.00081871
   0.68616012  0.66693183 -0.00001179
   0.10475608  0.21476375  0.94855990
   0.21522057  0.10698178  0.05300058
   0.11663174  0.55914882  0.94610695
   0.22598621  0.45065283  0.05130237
   0.10723296  0.88987341  0.94676518
   0.22407981  0.77409941  0.05387427
   0.44991543  0.22401675  0.95013914
   0.55661741  0.11843700  0.05145138
   0.44195928  0.55894495  0.95234388
   0.55779075  0.44004284  0.04987644
   0.44188400  0.88258217  0.94863575
   0.54953082  0.77416502  0.04773296
   0.77482097  0.22615580  0.94706966
   0.89244648  0.10919698  0.04978370
   0.77669050  0.54878600  0.94719028
   0.88388813  0.44327526  0.05325629
   0.78443358  0.89324814  0.95007961
   0.89452073  0.78439074  0.05282961
unknown system                          
           1
     8.295681    4.790288    0.000000
    -8.288230    4.777381    0.000000
     0.000000    0.000000   30.000000
   V    Mo   W    S 
   3   3   3  18
Direct configuration=    18
   0.68465830  0.33938125  0.00026151
   0.01201886 -0.00622674 -0.00024726
   0.30953153  0.66683808 -0.00001051
   0.99814766  0.34415244  0.00025255
   0.32085125 -0.01044115 -0.00024855
   0.00334969  0.66642021  0.00000783
   0.31630586  0.31622284 -0.00089600
   0.66600225  0.01613063  0.00090813
   0.68880116  0.66699514 -0.00002928
   0.10393386  0.21417826  0.94857044
   0.21505602  0.10671436  0.05316044
   0.11629410  0.55909985  0.94597989
   0.22605517  0.45068054  0.05119567
   0.10723040  0.88954443  0.94662023
   0.22379468  0.77417061  0.05400681
   0.44989583  0.22400457  0.95049363
   0.55637617  0.11898480  0.05143117
   0.44225574  0.55900753  0.95302187
   0.55778808  0.44007049  0.04955407
   0.44190294  0.88254879  0.94873364
   0.54973091  0.77407262  0.04708025
   0.77491713  0.22638885  0.94693012
   0.89245016  0.10919230  0.04941306
   0.77702417  0.54853526  0.94691945
   0.88422412  0.44360076  0.05338862
   0.78447033  0.89326563  0.95038478
   0.89514806  0.78468211  0.05311733
unknown system                          
           1
     8.309835    4.799267    0.000000
    -8.297431    4.777782    0.000000
     0.000000    0.000000   30.000000
   V    Mo   W    S 
   3   3   3  18
Direct configuration=    19
   0.68626757  0.34030994  0.00026909
   0.01274891 -0.00716037 -0.00025089
   0.30834599  0.66686464 -0.00001069
   0.99790589  0.34460908  0.00024119
   0.32014586 -0.01088363 -0.00023970
   0.00309909  0.66644725  0.00001011
   0.31485632  0.31492356 -0.00092679
   0.66577100  0.01735563  0.00093868
   0.69040376  0.66702976 -0.00002978
   0.10330870  0.21373926  0.94855046
   0.21495827  0.10653483  0.05329440
   0.11607473  0.55903849  0.94586925
   0.22609948  0.45072636  0.05114220
   0.10723929  0.88929455  0.94648933
   0.22363435  0.77423250  0.05411687
   0.44995959  0.22405503  0.95070716
   0.55618520  0.11942025  0.05146183
   0.44242120  0.55905965  0.95343675
   0.55777775  0.44004901  0.04936861
   0.44190569  0.88250435  0.94877585
   0.54983168  0.77401279  0.04667356
   0.77499600  0.22655063  0.94679865
   0.89245497  0.10912771  0.04918389
   0.77725998  0.54833243  0.94671374
   0.88447924  0.44385023  0.05352785
   0.78450719  0.89330935  0.95057060
   0.89557675  0.78488119  0.05331769
unknown system                          
           1
     8.328193    4.808211    0.000000
    -8.316873    4.788609    0.000000
     0.000000    0.000000   30.000000
   V    Mo   W    S 
   3   3   3  18
Direct configuration=    20
   0.69451526  0.34510922  0.00027245
   0.01607342 -0.01185358 -0.00023901
   0.30302108  0.66702976 -0.00002779
   0.99615267  0.34680610  0.00016320
   0.31672659 -0.01295424 -0.00014996
   0.00214536  0.66618334  0.00001230
   0.30779438  0.30864990 -0.00104667
   0.66455521  0.02369732  0.00106547
   0.69761267  0.66689712 -0.00006585
   0.09991412  0.21121786  0.94848188
   0.21448054  0.10551915  0.05403739
   0.11482188  0.55861539  0.94534713
   0.22613583  0.45078905  0.05080551
   0.10738777  0.88770727  0.94577127
   0.22283593  0.77472823  0.05464961
   0.45038674  0.22455951  0.95192792
   0.55531299  0.12200766  0.05154114
   0.44319848  0.55907552  0.95559010
   0.55774924  0.43989676  0.04833732
   0.44181488  0.88240711  0.94904575
   0.55053881  0.77394559  0.04456142
   0.77542246  0.22752842  0.94613002
   0.89229403  0.10860540  0.04792022
   0.77870595  0.54739923  0.94577824
   0.88602639  0.44536078  0.05420914
   0.78467074  0.89353039  0.95158135
   0.89792102  0.78575621  0.05430032
unknown system                          
           1
     8.330350    4.809962    0.000000
    -8.318383    4.789239    0.000000
     0.000000    0.000000   30.000000
   V    Mo   W    S 
   3   3   3  18
Direct configuration=    21
   0.69502297  0.34570247  0.00019329
   0.01628377 -0.01252408 -0.00014996
   0.30308384  0.66707058 -0.00001241
   0.99578434  0.34691835  0.00008144
   0.31582997 -0.01320031 -0.00009564
   0.00269546  0.66650227  0.00002068
   0.30693294  0.30787080 -0.00094845
   0.66441012  0.02416014  0.00094364
   0.69811445  0.66708046 -0.00001595
   0.09893553  0.21034876  0.94844748
   0.21431996  0.10525318  0.05420615
   0.11452059  0.55836794  0.94520379
   0.22586398  0.45070307  0.05075855
   0.10748472  0.88718441  0.94558493
   0.22273698  0.77489717  0.05477996
   0.45066087  0.22487419  0.95215271
   0.55516033  0.12291351  0.05163943
   0.44317539  0.55883019  0.95587882
   0.55776202  0.43985890  0.04818784
   0.44172910  0.88253414  0.94907628
   0.55078952  0.77421794  0.04426002
   0.77557229  0.22775985  0.94589340
   0.89223340  0.10825209  0.04766546
   0.77922944  0.54729646  0.94558191
   0.88672353  0.44595472  0.05450005
   0.78473733  0.89359411  0.95175553
   0.89842160  0.78579315  0.05441096
unknown system                          
           1
     8.332176    4.811368    0.000000
    -8.321651    4.793142    0.000000
     0.000000    0.000000   30.000000
   V    Mo   W    S 
   3   3   3  18
Direct configuration=    22
   0.69986490  0.34873946  0.00013894
   0.01810056 -0.01548107 -0.00008096
   0.30061930  0.66720881 -0.00002823
   0.99431613  0.34817032 -0.00001866
   0.31329965 -0.01444742  0.00002871
   0.00279429  0.66645575  0.00002179
   0.30242269  0.30396366 -0.00093983
   0.66350391  0.02809966  0.00093291
   0.70213795  0.66695395 -0.00004782
   0.09646447  0.20820832  0.94850741
   0.21392482  0.10451368  0.05471886
   0.11369884  0.55791471  0.94490343
   0.22548553  0.45050108  0.05047945
   0.10770083  0.88582490  0.94511233
   0.22237062  0.77538307  0.05509192
   0.45106612  0.22550430  0.95309603
   0.55480010  0.12505785  0.05159861
   0.44345512  0.55837210  0.95726695
   0.55776412  0.43982008  0.04747219
   0.44152670  0.88271749  0.94929784
   0.55153161  0.77466081  0.04289558
   0.77584473  0.22844780  0.94539995
   0.89193006  0.10756924  0.04667863
   0.78054962  0.54700878  0.94508422
   0.88822136  0.44728672  0.05496504
   0.78480010  0.89368246  0.95248672
   0.90002032  0.78607794  0.05493788
unknown system                          
           1
     8.338542    4.814927    0.000000
    -8.329521    4.799304    0.000000
     0.000000    0.000000   30.000000
   V    Mo   W    S 
   3   3   3  18
Direct configuration=    23
   0.69899464  0.34830292  0.00010871
   0.01758037 -0.01505172 -0.00004629
   0.30152921  0.66718372 -0.00003660
   0.99427338  0.34795883 -0.00003865
   0.31347411 -0.01423465  0.00005773
   0.00329653  0.66642088  0.00002214
   0.30303827  0.30458940 -0.00083835
   0.66355031  0.02757344  0.00082422
   0.70123140  0.66690569 -0.00005402
   0.09652164  0.20806337  0.94855227
   0.21391212  0.10460616  0.05471362
   0.11391224  0.55785400  0.94497512
   0.22523058  0.45034094  0.05047669
   0.10775326  0.88577115  0.94516215
   0.22263579  0.77543957  0.05503664
   0.45110720  0.22566615  0.95311766
   0.55499785  0.12516210  0.05154545
   0.44319599  0.55798397  0.95708929
   0.55774418  0.43994650  0.04752618
   0.44141880  0.88287872  0.94929929
   0.55169412  0.77506209  0.04306915
   0.77574962  0.22834788  0.94541486
   0.89181743  0.10738931  0.04665451
   0.78067730  0.54732891  0.94521247
   0.88837222  0.44735422  0.05488742
   0.78465398  0.89356591  0.95244705
   0.89985192  0.78580497  0.05482119
unknown system                          
           1
     8.334650    4.812609    0.000000
    -8.325686    4.797086    0.000000
     0.000000    0.000000   30.000000
   V    Mo   W    S 
   3   3   3  18
Direct configuration=    24
   0.69935718  0.34854673  0.00009030
   0.01762466 -0.01530058 -0.00002732
   0.30164476  0.66723897 -0.00003555
   0.99402570  0.34808033 -0.00009963
   0.31317254 -0.01440694  0.00010850
   0.00377635  0.66638885  0.00002317
   0.30242515  0.30420343 -0.00077036
   0.66328662  0.02801102  0.00074729
   0.70138507  0.66681360 -0.00003469
   0.09624625  0.20761724  0.94863397
   0.21377878  0.10453800  0.05481949
   0.11409557  0.55775307  0.94498457
   0.22495821  0.45023646  0.05044187
   0.10783515  0.88553841  0.94515382
   0.22291419  0.77552609  0.05502671
   0.45122653  0.22592717  0.95332039
   0.55515083  0.12564761  0.05147300
   0.44301601  0.55761505  0.95718498
   0.55770322  0.44002273  0.04746393
   0.44123142  0.88299122  0.94932315