       N       E                     dE             d eps       ncg     rms          rms(c)
DAV:   1     0.112356448185E+04    0.11236E+04   -0.35865E+04  8160   0.577E+02
DAV:   2    -0.443840172414E+01   -0.11280E+04   -0.10861E+04 11680   0.173E+02
DAV:   3    -0.200124253099E+03   -0.19569E+03   -0.18844E+03 10880   0.819E+01
DAV:   4    -0.208993999618E+03   -0.88697E+01   -0.86435E+01 12200   0.260E+01
DAV:   5    -0.209299929541E+03   -0.30593E+00   -0.30516E+00 11360   0.351E+00    0.275E+01
DAV:   6    -0.237726702945E+03   -0.28427E+02   -0.10699E+02 12480   0.599E+01    0.595E+01
DAV:   7    -0.196625606416E+03    0.41101E+02   -0.17699E+02 13480   0.152E+02    0.201E+01
DAV:   8    -0.189636118434E+03    0.69895E+01   -0.17609E+01 12080   0.128E+01    0.128E+01
DAV:   9    -0.188216904716E+03    0.14192E+01   -0.31144E+00 13040   0.615E+00    0.940E+00
DAV:  10    -0.186952112582E+03    0.12648E+01   -0.17570E+00 13400   0.796E+00    0.215E+00
DAV:  11    -0.187043395345E+03   -0.91283E-01   -0.58532E-01 13600   0.295E+00    0.367E+00
DAV:  12    -0.186985776890E+03    0.57618E-01   -0.66670E-01 12720   0.436E+00    0.347E+00
DAV:  13    -0.186877619879E+03    0.10816E+00   -0.26201E-01 13280   0.299E+00    0.178E+00
DAV:  14    -0.186843664077E+03    0.33956E-01   -0.96632E-02 12920   0.152E+00    0.596E-01
DAV:  15    -0.186839589405E+03    0.40747E-02   -0.14933E-02 12640   0.499E-01    0.530E-01
DAV:  16    -0.186839439718E+03    0.14969E-03   -0.11053E-02 13320   0.552E-01    0.549E-01
DAV:  17    -0.186836387813E+03    0.30519E-02   -0.73675E-03 12640   0.432E-01    0.182E-01
DAV:  18    -0.186836125736E+03    0.26208E-03   -0.14238E-03 12200   0.154E-01    0.964E-02
DAV:  19    -0.186836142194E+03   -0.16457E-04   -0.59328E-04  9840   0.697E-02
   1 F= -.18683614E+03 E0= -.18666429E+03  d E =-.186836E+03
       N       E                     dE             d eps       ncg     rms          rms(c)
DAV:   1    -0.187493149769E+03   -0.65702E+00   -0.27427E+02  8160   0.351E+01    0.469E+00
DAV:   2    -0.189515079272E+03   -0.20219E+01   -0.20343E+01 11960   0.155E+01    0.102E+01
DAV:   3    -0.189330825371E+03    0.18425E+00   -0.55749E+00 12280   0.131E+01    0.616E+00
DAV:   4    -0.188766171000E+03    0.56465E+00   -0.57067E-01 11320   0.456E+00    0.246E+00
DAV:   5    -0.188850512504E+03   -0.84342E-01   -0.47949E-01 12160   0.403E+00    0.491E+00
DAV:   6    -0.188721400616E+03    0.12911E+00   -0.63317E-01 12200   0.394E+00    0.222E+00
DAV:   7    -0.188689518525E+03    0.31882E-01   -0.22060E-01 11920   0.203E+00    0.199E+00
DAV:   8    -0.188674050781E+03    0.15468E-01   -0.12627E-01 11920   0.208E+00    0.182E+00
DAV:   9    -0.188648589611E+03    0.25461E-01   -0.55512E-02 12080   0.120E+00    0.628E-01
DAV:  10    -0.188645455687E+03    0.31339E-02   -0.67138E-03 10520   0.302E-01    0.282E-01
DAV:  11    -0.188645146632E+03    0.30905E-03   -0.31511E-03 12960   0.256E-01    0.144E-01
DAV:  12    -0.188645262740E+03   -0.11611E-03   -0.95290E-04 10720   0.999E-02    0.113E-01
DAV:  13    -0.188645316362E+03   -0.53622E-04   -0.29085E-04  6800   0.720E-02
   2 F= -.18864532E+03 E0= -.18850517E+03  d E =-.180917E+01
       N       E                     dE             d eps       ncg     rms          rms(c)
DAV:   1    -0.190599637636E+03   -0.19544E+01   -0.31840E+01  9200   0.144E+01    0.448E+00
DAV:   2    -0.190532212568E+03    0.67425E-01   -0.28068E+00 12120   0.944E+00    0.715E+00
DAV:   3    -0.190076845389E+03    0.45537E+00   -0.13204E+00 12280   0.864E+00    0.428E+00
DAV:   4    -0.189859274071E+03    0.21757E+00   -0.70691E-01 13120   0.438E+00    0.251E+00
DAV:   5    -0.189813229918E+03    0.46044E-01   -0.35077E-01 12240   0.286E+00    0.240E+00
DAV:   6    -0.189757680471E+03    0.55549E-01   -0.11663E-01 12360   0.223E+00    0.707E-01
DAV:   7    -0.189752182082E+03    0.54984E-02   -0.13054E-02 11880   0.528E-01    0.243E-01
DAV:   8    -0.189752929870E+03   -0.74779E-03   -0.45103E-03 11680   0.362E-01    0.381E-01
DAV:   9    -0.189751927710E+03    0.10022E-02   -0.25947E-03 10400   0.318E-01    0.146E-01
DAV:  10    -0.189752294444E+03   -0.36673E-03   -0.10988E-03 10320   0.134E-01    0.140E-01
DAV:  11    -0.189752004599E+03    0.28984E-03   -0.58206E-04 10480   0.867E-02    0.188E-02
DAV:  12    -0.189752065107E+03   -0.60507E-04   -0.73318E-05  6480   0.247E-02
   3 F= -.18975207E+03 E0= -.18963408E+03  d E =-.110675E+01
       N       E                     dE             d eps       ncg     rms          rms(c)
DAV:   1    -0.191339122103E+03   -0.15871E+01   -0.77290E+01  8160   0.200E+01    0.463E+00
DAV:   2    -0.191160876019E+03    0.17825E+00   -0.54038E+00 13000   0.776E+00    0.462E+00
DAV:   3    -0.191317772980E+03   -0.15690E+00   -0.14940E+00 12200   0.910E+00    0.713E+00
DAV:   4    -0.190945568386E+03    0.37220E+00   -0.17222E+00 12160   0.847E+00    0.381E+00
DAV:   5    -0.190926510418E+03    0.19058E-01   -0.74799E-01 11240   0.558E+00    0.354E+00
DAV:   6    -0.190755350079E+03    0.17116E+00   -0.22014E-01 11600   0.318E+00    0.762E-01
DAV:   7    -0.190753415123E+03    0.19350E-02   -0.44441E-02 12640   0.987E-01    0.748E-01
DAV:   8    -0.190752177490E+03    0.12376E-02   -0.22496E-02 12000   0.102E+00    0.680E-01
DAV:   9    -0.190747245995E+03    0.49315E-02   -0.66669E-03 11160   0.563E-01    0.158E-01
DAV:  10    -0.190747601558E+03   -0.35556E-03   -0.15417E-03 10680   0.134E-01    0.133E-01
DAV:  11    -0.190747395234E+03    0.20632E-03   -0.83896E-04 10720   0.112E-01    0.419E-02
DAV:  12    -0.190747418537E+03   -0.23303E-04   -0.13280E-04  6560   0.417E-02
   4 F= -.19074742E+03 E0= -.19064626E+03  d E =-.995353E+00
       N       E                     dE             d eps       ncg     rms          rms(c)
DAV:   1    -0.192124100279E+03   -0.13767E+01   -0.16204E+02  8160   0.284E+01    0.571E+00
DAV:   2    -0.191882768093E+03    0.24133E+00   -0.93855E+00 11480   0.857E+00    0.435E+00
DAV:   3    -0.192377381570E+03   -0.49461E+00   -0.27244E+00 11960   0.104E+01    0.107E+01
DAV:   4    -0.191654470638E+03    0.72291E+00   -0.32447E+00 11760   0.123E+01    0.375E+00
DAV:   5    -0.191596020518E+03    0.58450E-01   -0.71643E-01 11920   0.576E+00    0.392E+00
DAV:   6    -0.191424299143E+03    0.17172E+00   -0.38327E-01 12600   0.433E+00    0.158E+00
DAV:   7    -0.191414326394E+03    0.99727E-02   -0.94301E-02 12440   0.203E+00    0.141E+00
DAV:   8    -0.191400617424E+03    0.13709E-01   -0.56743E-02 11360   0.164E+00    0.664E-01
DAV:   9    -0.191394893008E+03    0.57244E-02   -0.69901E-03 11680   0.485E-01    0.239E-01
DAV:  10    -0.191394854872E+03    0.38136E-04   -0.27475E-03 12200   0.241E-01    0.826E-02
DAV:  11    -0.191394915749E+03   -0.60876E-04   -0.52653E-04 10800   0.913E-02
   5 F= -.19139492E+03 E0= -.19129701E+03  d E =-.647497E+00
       N       E                     dE             d eps       ncg     rms          rms(c)
DAV:   1    -0.191429880512E+03   -0.35026E-01   -0.28832E+00  8160   0.359E+00    0.497E-01
DAV:   2    -0.191470095214E+03   -0.40215E-01   -0.19010E-01 12760   0.236E+00    0.177E+00
DAV:   3    -0.191439428882E+03    0.30666E-01   -0.61702E-02 12360   0.178E+00    0.355E-01
DAV:   4    -0.191439755910E+03   -0.32703E-03   -0.76080E-03 11080   0.600E-01    0.421E-01
DAV:   5    -0.191437912359E+03    0.18436E-02   -0.39775E-03 10720   0.468E-01    0.179E-01
DAV:   6    -0.191437861788E+03    0.50571E-04   -0.17023E-03 11520   0.213E-01    0.166E-01
DAV:   7    -0.191438088609E+03   -0.22682E-03   -0.22473E-03 10200   0.305E-01    0.233E-01
DAV:   8    -0.191437542332E+03    0.54628E-03   -0.96005E-04  8680   0.201E-01    0.270E-02
DAV:   9    -0.191437561290E+03   -0.18957E-04   -0.74766E-05  5800   0.321E-02
   6 F= -.19143756E+03 E0= -.19133756E+03  d E =-.426455E-01
       N       E                     dE             d eps       ncg     rms          rms(c)
DAV:   1    -0.191485225758E+03   -0.47683E-01   -0.74745E+00  8160   0.576E+00    0.708E-01
DAV:   2    -0.191536457156E+03   -0.51231E-01   -0.26684E-01 13200   0.233E+00    0.209E+00
DAV:   3    -0.191496196072E+03    0.40261E-01   -0.11227E-01 12440   0.231E+00    0.654E-01
DAV:   4    -0.191493996096E+03    0.22000E-02   -0.16373E-02 10920   0.748E-01    0.504E-01
DAV:   5    -0.191491880909E+03    0.21152E-02   -0.90650E-03 11320   0.714E-01    0.354E-01
DAV:   6    -0.191491026084E+03    0.85483E-03   -0.52104E-03 11360   0.437E-01    0.249E-01
DAV:   7    -0.191491586398E+03   -0.56031E-03   -0.50158E-03 11360   0.454E-01    0.351E-01
DAV:   8    -0.191490360430E+03    0.12260E-02   -0.21915E-03  9600   0.308E-01    0.407E-02
DAV:   9    -0.191490376781E+03   -0.16351E-04   -0.10799E-04  5560   0.432E-02
   7 F= -.19149038E+03 E0= -.19138820E+03  d E =-.528155E-01
       N       E                     dE             d eps       ncg     rms          rms(c)
DAV:   1    -0.191500034962E+03   -0.96745E-02   -0.29297E-01  8160   0.121E+00    0.243E-01
DAV:   2    -0.191500374614E+03   -0.33965E-03   -0.15186E-02 11560   0.495E-01    0.371E-01
DAV:   3    -0.191499756324E+03    0.61829E-03   -0.67716E-03 11480   0.578E-01    0.303E-01
DAV:   4    -0.191498990420E+03    0.76590E-03   -0.29577E-03 10960   0.361E-01    0.190E-01
DAV:   5    -0.191498848934E+03    0.14149E-03   -0.16726E-03  9760   0.293E-01    0.167E-01
DAV:   6    -0.191498504864E+03    0.34407E-03   -0.77061E-04  9800   0.184E-01    0.410E-02
DAV:   7    -0.191498494067E+03    0.10797E-04   -0.10371E-04  5880   0.481E-02
   8 F= -.19149849E+03 E0= -.19139589E+03  d E =-.811729E-02
       N       E                     dE             d eps       ncg     rms          rms(c)
DAV:   1    -0.191534963920E+03   -0.36459E-01   -0.32065E+00  8160   0.378E+00    0.448E-01
DAV:   2    -0.191561683087E+03   -0.26719E-01   -0.11538E-01 13600   0.181E+00    0.156E+00
DAV:   3    -0.191538867747E+03    0.22815E-01   -0.51023E-02 12400   0.156E+00    0.324E-01
DAV:   4    -0.191539123375E+03   -0.25563E-03   -0.59637E-03 11520   0.495E-01    0.380E-01
DAV:   5    -0.191537818765E+03    0.13046E-02   -0.43699E-03 11160   0.461E-01    0.212E-01
DAV:   6    -0.191537825863E+03   -0.70981E-05   -0.24863E-03 10360   0.295E-01    0.224E-01
DAV:   7    -0.191537636765E+03    0.18910E-03   -0.20331E-03  9720   0.303E-01    0.153E-01
DAV:   8    -0.191537335546E+03    0.30122E-03   -0.49166E-04  8240   0.138E-01    0.201E-02
DAV:   9    -0.191537345559E+03   -0.10013E-04   -0.58971E-05  6880   0.284E-02
   9 F= -.19153735E+03 E0= -.19143401E+03  d E =-.388515E-01
       N       E                     dE             d eps       ncg     rms          rms(c)
DAV:   1    -0.191452593918E+03    0.84742E-01   -0.14117E+01  8160   0.793E+00    0.924E-01
DAV:   2    -0.191547491014E+03   -0.94897E-01   -0.46536E-01 13600   0.353E+00    0.272E+00
DAV:   3    -0.191469287920E+03    0.78203E-01   -0.15916E-01 12240   0.290E+00    0.746E-01
DAV:   4    -0.191470430276E+03   -0.11424E-02   -0.29126E-02 11320   0.117E+00    0.871E-01
DAV:   5    -0.191463479443E+03    0.69508E-02   -0.22226E-02 11960   0.106E+00    0.448E-01
DAV:   6    -0.191463278636E+03    0.20081E-03   -0.10664E-02 11480   0.628E-01    0.469E-01
DAV:   7    -0.191462258394E+03    0.10202E-02   -0.83342E-03 11360   0.606E-01    0.300E-01
DAV:   8    -0.191461112589E+03    0.11458E-02   -0.20921E-03 11720   0.266E-01    0.469E-02
DAV:   9    -0.191461115816E+03   -0.32266E-05   -0.22342E-04  8080   0.520E-02
  10 F= -.19146112E+03 E0= -.19135977E+03  d E =0.762297E-01
       N       E                     dE             d eps       ncg     rms          rms(c)
DAV:   1    -0.191423906850E+03    0.37206E-01   -0.69270E+00  8160   0.553E+00    0.579E-01
DAV:   2    -0.191453894286E+03   -0.29987E-01   -0.17591E-01 13400   0.182E+00    0.155E+00
DAV:   3    -0.191432878100E+03    0.21016E-01   -0.65208E-02 12160   0.177E+00    0.614E-01
DAV:   4    -0.191429574174E+03    0.33039E-02   -0.11074E-02 11240   0.581E-01    0.301E-01
DAV:   5    -0.191429439622E+03    0.13455E-03   -0.61193E-03 11880   0.468E-01    0.411E-01
DAV:   6    -0.191428318955E+03    0.11207E-02   -0.55218E-03 11000   0.472E-01    0.211E-01
DAV:   7    -0.191428090477E+03    0.22848E-03   -0.14622E-03 10160   0.203E-01    0.962E-02
DAV:   8    -0.191427967793E+03    0.12268E-03   -0.43160E-04 10040   0.140E-01    0.725E-02
DAV:   9    -0.191427912656E+03    0.55137E-04   -0.12834E-04  6840   0.894E-02
  11 F= -.19142791E+03 E0= -.19132774E+03  d E =0.332032E-01
       N       E                     dE             d eps       ncg     rms          rms(c)
DAV:   1    -0.191432455124E+03   -0.44873E-02   -0.11233E+00  8160   0.224E+00    0.250E-01
DAV:   2    -0.191435307060E+03   -0.28519E-02   -0.37291E-02 12120   0.563E-01    0.296E-01
DAV:   3    -0.191435509335E+03   -0.20227E-03   -0.91331E-03 11120   0.575E-01    0.417E-01
DAV:   4    -0.191434000832E+03    0.15085E-02   -0.37398E-03 10760   0.387E-01    0.150E-01
DAV:   5    -0.191433915829E+03    0.85003E-04   -0.11115E-03  9600   0.227E-01    0.146E-01
DAV:   6    -0.191433821619E+03    0.94209E-04   -0.86631E-04  9640   0.208E-01
  12 F= -.19143382E+03 E0= -.19133287E+03  d E =-.590896E-02
       N       E                     dE             d eps       ncg     rms          rms(c)
DAV:   1    -0.191449413746E+03   -0.15498E-01   -0.12179E+00  8160   0.237E+00    0.308E-01
DAV:   2    -0.191457956394E+03   -0.85426E-02   -0.48961E-02 13600   0.108E+00    0.867E-01
DAV:   3    -0.191451218327E+03    0.67381E-02   -0.19889E-02 11760   0.948E-01    0.307E-01
DAV:   4    -0.191450982856E+03    0.23547E-03   -0.44271E-03 11040   0.425E-01    0.296E-01
DAV:   5    -0.191450272403E+03    0.71045E-03   -0.26826E-03 10200   0.362E-01    0.169E-01
DAV:   6    -0.191450108847E+03    0.16356E-03   -0.12322E-03  9680   0.206E-01    0.143E-01
DAV:   7    -0.191450046537E+03    0.62310E-04   -0.92784E-04  8480   0.211E-01
  13 F= -.19145005E+03 E0= -.19134732E+03  d E =-.162249E-01
       N       E                     dE             d eps       ncg     rms          rms(c)
DAV:   1    -0.191461899530E+03   -0.11791E-01   -0.65494E-01  8160   0.173E+00    0.230E-01
DAV:   2    -0.191468461162E+03   -0.65616E-02   -0.29768E-02 13600   0.884E-01    0.766E-01
DAV:   3    -0.191462933609E+03    0.55276E-02   -0.13106E-02 11520   0.781E-01    0.199E-01
DAV:   4    -0.191462849608E+03    0.84002E-04   -0.19041E-03 10120   0.264E-01    0.186E-01
DAV:   5    -0.191462610196E+03    0.23941E-03   -0.12422E-03 10440   0.243E-01    0.129E-01
DAV:   6    -0.191462499446E+03    0.11075E-03   -0.63555E-04  8400   0.151E-01    0.978E-02
DAV:   7    -0.191462490907E+03    0.85385E-05   -0.46293E-04  8360   0.149E-01
  14 F= -.19146249E+03 E0= -.19135843E+03  d E =-.124444E-01
       N       E                     dE             d eps       ncg     rms          rms(c)
DAV:   1    -0.191451211019E+03    0.11288E-01   -0.51512E-01  8160   0.152E+00    0.187E-01
DAV:   2    -0.191456045948E+03   -0.48349E-02   -0.20776E-02 13600   0.756E-01    0.656E-01
DAV:   3    -0.191451932195E+03    0.41138E-02   -0.87750E-03 11480   0.654E-01    0.148E-01
DAV:   4    -0.191451815658E+03    0.11654E-03   -0.91691E-04  9800   0.167E-01    0.112E-01
DAV:   5    -0.191451768248E+03    0.47410E-04   -0.61891E-04  9280   0.170E-01
  15 F= -.19145177E+03 E0= -.19134868E+03  d E =0.107227E-01
       N       E                     dE             d eps       ncg     rms          rms(c)
DAV:   1    -0.191455191731E+03   -0.33761E-02   -0.25728E-01  8160   0.109E+00    0.147E-01
DAV:   2    -0.191455970967E+03   -0.77924E-03   -0.87527E-03 12600   0.351E-01    0.268E-01
DAV:   3    -0.191455566421E+03    0.40455E-03   -0.31053E-03 11360   0.380E-01    0.207E-01
DAV:   4    -0.191455150401E+03    0.41602E-03   -0.95365E-04  8880   0.194E-01    0.730E-02
DAV:   5    -0.191455204884E+03   -0.54483E-04   -0.50772E-04  8240   0.140E-01
  16 F= -.19145520E+03 E0= -.19135188E+03  d E =-.343664E-02
       N       E                     dE             d eps       ncg     rms          rms(c)
DAV:   1    -0.191469098698E+03   -0.13948E-01   -0.85933E-01  8160   0.198E+00    0.302E-01
DAV:   2    -0.191484491457E+03   -0.15393E-01   -0.52303E-02 13360   0.127E+00    0.129E+00
DAV:   3    -0.191469865631E+03    0.14626E-01   -0.31989E-02 11160   0.113E+00    0.215E-01
DAV:   4    -0.191470247303E+03   -0.38167E-03   -0.35403E-03 11400   0.365E-01    0.304E-01
DAV:   5    -0.191469413753E+03    0.83355E-03   -0.22945E-03  9640   0.320E-01    0.127E-01
DAV:   6    -0.191469353732E+03    0.60021E-04   -0.79886E-04  9480   0.173E-01
  17 F= -.19146935E+03 E0= -.19136454E+03  d E =-.141488E-01
       N       E                     dE             d eps       ncg     rms          rms(c)
DAV:   1    -0.191424871907E+03    0.44542E-01   -0.11425E+01  8160   0.716E+00    0.930E-01
DAV:   2    -0.191546991744E+03   -0.12212E+00   -0.47558E-01 13560   0.358E+00    0.355E+00
DAV:   3    -0.191438779115E+03    0.10821E+00   -0.25593E-01 12080   0.337E+00    0.734E-01
DAV:   4    -0.191434414940E+03    0.43642E-02   -0.21868E-02 11000   0.871E-01    0.561E-01
DAV:   5    -0.191433327748E+03    0.10872E-02   -0.17182E-02 12640   0.901E-01    0.570E-01
DAV:   6    -0.191430302632E+03    0.30251E-02   -0.89101E-03 12160   0.602E-01    0.292E-01
DAV:   7    -0.191431170761E+03   -0.86813E-03   -0.62230E-03 11160   0.547E-01    0.391E-01
DAV:   8    -0.191429481092E+03    0.16897E-02   -0.26467E-03 10040   0.351E-01    0.413E-02
DAV:   9    -0.191429496128E+03   -0.15037E-04   -0.16695E-04  7600   0.465E-02
  18 F= -.19142950E+03 E0= -.19133046E+03  d E =0.398576E-01
       N       E                     dE             d eps       ncg     rms          rms(c)
DAV:   1    -0.191445267783E+03   -0.15787E-01   -0.11929E+00  8160   0.234E+00    0.387E-01
DAV:   2    -0.191461567721E+03   -0.16300E-01   -0.63037E-02 13520   0.148E+00    0.133E+00
DAV:   3    -0.191444968613E+03    0.16599E-01   -0.35773E-02 11640   0.128E+00    0.308E-01
DAV:   4    -0.191445795537E+03   -0.82692E-03   -0.72016E-03 11400   0.576E-01    0.442E-01
DAV:   5    -0.191443895934E+03    0.18996E-02   -0.46201E-03 10960   0.468E-01    0.179E-01
DAV:   6    -0.191443926859E+03   -0.30926E-04   -0.21716E-03 11440   0.286E-01    0.219E-01
DAV:   7    -0.191443521450E+03    0.40541E-03   -0.12990E-03  9840   0.247E-01    0.849E-02
DAV:   8    -0.191443445004E+03    0.76445E-04   -0.17423E-04  5760   0.814E-02
  19 F= -.19144345E+03 E0= -.19134333E+03  d E =-.139489E-01
       N       E                     dE             d eps       ncg     rms          rms(c)
DAV:   1    -0.191452741381E+03   -0.92199E-02   -0.61824E-01  8160   0.164E+00    0.171E-01
DAV:   2    -0.191455073911E+03   -0.23325E-02   -0.16788E-02 13480   0.486E-01    0.393E-01
DAV:   3    -0.191453770200E+03    0.13037E-02   -0.51366E-03 11480   0.488E-01    0.206E-01
DAV:   4    -0.191453487703E+03    0.28250E-03   -0.11139E-03  9520   0.198E-01    0.115E-01
DAV:   5    -0.191453420186E+03    0.67517E-04   -0.52772E-04  9040   0.164E-01
  20 F= -.19145342E+03 E0= -.19135339E+03  d E =-.997518E-02
       N       E                     dE             d eps       ncg     rms          rms(c)
DAV:   1    -0.191460918706E+03   -0.74310E-02   -0.34672E-01  8160   0.125E+00    0.181E-01
DAV:   2    -0.191466343318E+03   -0.54246E-02   -0.17476E-02 13600   0.753E-01    0.727E-01
DAV:   3    -0.191461230066E+03    0.51133E-02   -0.92022E-03 11200   0.679E-01    0.110E-01
DAV:   4    -0.191461292990E+03   -0.62924E-04   -0.76793E-04  9720   0.149E-01
  21 F= -.19146129E+03 E0= -.19136099E+03  d E =-.787280E-02
       N       E                     dE             d eps       ncg     rms          rms(c)
DAV:   1    -0.191447230464E+03    0.14000E-01   -0.25042E+00  8160   0.335E+00    0.422E-01
DAV:   2    -0.191477867823E+03   -0.30637E-01   -0.11003E-01 13600   0.177E+00    0.170E+00
DAV:   3    -0.191450016822E+03    0.27851E-01   -0.54156E-02 11800   0.159E+00    0.274E-01
DAV:   4    -0.191449627889E+03    0.38893E-03   -0.37052E-03 11240   0.335E-01    0.218E-01
DAV:   5    -0.191449288602E+03    0.33929E-03   -0.20947E-03 12400   0.340E-01    0.189E-01
DAV:   6    -0.191448936778E+03    0.35182E-03   -0.10672E-03  9920   0.218E-01    0.957E-02
DAV:   7    -0.191449270352E+03   -0.33357E-03   -0.11433E-03  9360   0.226E-01    0.204E-01
DAV:   8    -0.191448837241E+03    0.43311E-03   -0.65179E-04  8240   0.176E-01    0.156E-02
DAV:   9    -0.191448857327E+03   -0.20086E-04   -0.28768E-05  5720   0.207E-02
  22 F= -.19144886E+03 E0= -.19135022E+03  d E =0.124357E-01
       N       E                     dE             d eps       ncg     rms          rms(c)
DAV:   1    -0.191467019522E+03   -0.18182E-01   -0.18012E+00  8160   0.280E+00    0.333E-01
DAV:   2    -0.191478702482E+03   -0.11683E-01   -0.53391E-02 13600   0.130E+00    0.987E-01
DAV:   3    -0.191468169629E+03    0.10533E-01   -0.20558E-02 12040   0.105E+00    0.235E-01
DAV:   4    -0.191468986068E+03   -0.81644E-03   -0.47443E-03 11040   0.451E-01    0.380E-01
DAV:   5    -0.191467662196E+03    0.13239E-02   -0.32557E-03 10320   0.400E-01    0.149E-01
DAV:   6    -0.191467564668E+03    0.97528E-04   -0.11244E-03 10120   0.192E-01    0.131E-01
DAV:   7    -0.191467621360E+03   -0.56692E-04   -0.10595E-03  9000   0.220E-01    0.151E-01
DAV:   8    -0.191467380223E+03    0.24114E-03   -0.40548E-04  7080   0.134E-01    0.181E-02
DAV:   9    -0.191467388228E+03   -0.80043E-05   -0.35057E-05  6120   0.233E-02
  23 F= -.19146739E+03 E0= -.19136879E+03  d E =-.185309E-01
       N       E                     dE             d eps       ncg     rms          rms(c)
DAV:   1    -0.191470868278E+03   -0.34881E-02   -0.63313E-02  8160   0.522E-01    0.527E-02
DAV:   2    -0.191471058087E+03   -0.18981E-03   -0.13397E-03 12800   0.152E-01    0.105E-01
DAV:   3    -0.191470930980E+03    0.12711E-03   -0.35007E-04  8600   0.138E-01    0.486E-02
DAV:   4    -0.191470919537E+03    0.11443E-04   -0.85551E-05  5520   0.640E-02
  24 F= -.19147092E+03 E0= -.19137243E+03  d E =-.353131E-02
       N       E                     dE             d eps       ncg     rms          rms(c)
DAV:   1    -0.191479858703E+03   -0.89277E-02   -0.73410E-01  8160   0.182E+00    0.252E-01
DAV:   2    -0.191490062444E+03   -0.10204E-01   -0.37017E-02 13200   0.106E+00    0.964E-01
DAV:   3    -0.191480740488E+03    0.93220E-02   -0.17078E-02 11440   0.919E-01    0.178E-01
DAV:   4    -0.191480774880E+03   -0.34392E-04   -0.17874E-03  9880   0.257E-01    0.197E-01
DAV:   5    -0.191480534180E+03    0.24070E-03   -0.14665E-03  9840   0.257E-01    0.142E-01
DAV:   6    -0.191480422979E+03    0.11120E-03   -0.68913E-04  8520   0.168E-01    0.986E-02
DAV:   7    -0.191480408259E+03    0.14720E-04   -0.42445E-04  8800   0.152E-01
  25 F= -.19148041E+03 E0= -.19138145E+03  d E =-.948872E-02
       N       E                     dE             d eps       ncg     rms          rms(c)
DAV:   1    -0.191497189594E+03   -0.16767E-01   -0.13823E+00  8160   0.245E+00    0.296E-01
DAV:   2    -0.191503526515E+03   -0.63369E-02   -0.35663E-02 13400   0.100E+00    0.715E-01
DAV:   3    -0.191497562984E+03    0.59635E-02   -0.12544E-02 12160   0.841E-01    0.201E-01
DAV:   4    -0.191497556144E+03    0.68402E-05   -0.27728E-03 11080   0.307E-01    0.228E-01
DAV:   5    -0.191497448470E+03    0.10767E-03   -0.26298E-03 10400   0.336E-01    0.242E-01
DAV:   6    -0.191496891477E+03    0.55699E-03   -0.14649E-03  9560   0.237E-01    0.690E-02
DAV:   7    -0.191496960782E+03   -0.69305E-04   -0.39736E-04  7360   0.124E-01
  26 F= -.19149696E+03 E0= -.19139881E+03  d E =-.165525E-01
       N       E                     dE             d eps       ncg     rms          rms(c)
DAV:   1    -0.191526009828E+03   -0.29118E-01   -0.24790E+00  8160   0.331E+00    0.371E-01
DAV:   2    -0.191539891331E+03   -0.13882E-01   -0.70390E-02 13480   0.134E+00    0.108E+00
DAV:   3    -0.191528448406E+03    0.11443E-01   -0.27626E-02 12280   0.116E+00    0.326E-01
DAV:   4    -0.191528797188E+03   -0.34878E-03   -0.62603E-03 11440   0.510E-01    0.383E-01
DAV:   5    -0.191527503495E+03    0.12937E-02   -0.38725E-03 11000   0.445E-01    0.192E-01
DAV:   6    -0.191527341916E+03    0.16158E-03   -0.16946E-03 10160   0.254E-01    0.175E-01
DAV:   7    -0.191527322015E+03    0.19901E-04   -0.14921E-03  9880   0.267E-01    0.156E-01
DAV:   8    -0.191527052739E+03    0.26928E-03   -0.46703E-04  8080   0.141E-01    0.219E-02
DAV:   9    -0.191527054405E+03   -0.16667E-05   -0.43161E-05  6520   0.264E-02
  27 F= -.19152705E+03 E0= -.19142917E+03  d E =-.300936E-01
       N       E                     dE             d eps       ncg     rms          rms(c)
DAV:   1    -0.191520750543E+03    0.63022E-02   -0.10471E-01  8160   0.685E-01    0.777E-02
DAV:   2    -0.191521337186E+03   -0.58664E-03   -0.32850E-03 13560   0.268E-01    0.223E-01
DAV:   3    -0.191520858455E+03    0.47873E-03   -0.12230E-03  9240   0.238E-01    0.714E-02
DAV:   4    -0.191520856031E+03    0.24243E-05   -0.20472E-04  5800   0.952E-02
  28 F= -.19152086E+03 E0= -.19142285E+03  d E =0.619837E-02
       N       E                     dE             d eps       ncg     rms          rms(c)
DAV:   1    -0.191465567425E+03    0.55291E-01   -0.79372E+00  8160   0.594E+00    0.606E-01
DAV:   2    -0.191493645410E+03   -0.28078E-01   -0.19801E-01 13440   0.176E+00    0.137E+00
DAV:   3    -0.191477237702E+03    0.16408E-01   -0.62173E-02 12520   0.170E+00    0.713E-01
DAV:   4    -0.191473823444E+03    0.34143E-02   -0.15131E-02 12160   0.738E-01    0.422E-01
DAV:   5    -0.191472815791E+03    0.10077E-02   -0.77564E-03 11360   0.627E-01    0.385E-01
DAV:   6    -0.191471731869E+03    0.10839E-02   -0.48781E-03 11360   0.475E-01    0.244E-01
DAV:   7    -0.191472266315E+03   -0.53445E-03   -0.40916E-03 11480   0.434E-01    0.323E-01
DAV:   8    -0.191471201404E+03    0.10649E-02   -0.19176E-03  9560   0.307E-01    0.532E-02
DAV:   9    -0.191471170128E+03    0.31276E-04   -0.12437E-04  6280   0.522E-02
  29 F= -.19147117E+03 E0= -.19137303E+03  d E =0.496859E-01
       N       E                     dE             d eps       ncg     rms          rms(c)
DAV:   1    -0.191490277888E+03   -0.19076E-01   -0.14970E+00  8160   0.259E+00    0.301E-01
DAV:   2    -0.191493056027E+03   -0.27781E-02   -0.41481E-02 12160   0.635E-01    0.385E-01
DAV:   3    -0.191493432310E+03   -0.37628E-03   -0.11938E-02 12680   0.727E-01    0.503E-01
DAV:   4    -0.191491142602E+03    0.22897E-02   -0.48776E-03 11040   0.474E-01    0.164E-01
DAV:   5    -0.191491105597E+03    0.37005E-04   -0.16058E-03  9760   0.268E-01    0.192E-01
DAV:   6    -0.191490959122E+03    0.14648E-03   -0.16355E-03 10200   0.290E-01    0.155E-01
DAV:   7    -0.191490840782E+03    0.11834E-03   -0.92325E-04  8880   0.197E-01    0.124E-01
DAV:   8    -0.191490715009E+03    0.12577E-03   -0.37947E-04  7960   0.138E-01    0.406E-02
DAV:   9    -0.191490702622E+03    0.12387E-04   -0.44640E-05  5840   0.393E-02
  30 F= -.19149070E+03 E0= -.19139335E+03  d E =-.195325E-01
       N       E                     dE             d eps       ncg     rms          rms(c)
DAV:   1    -0.191504175797E+03   -0.13461E-01   -0.49929E-01  8160   0.150E+00    0.194E-01
DAV:   2    -0.191506984017E+03   -0.28082E-02   -0.16245E-02 13600   0.652E-01    0.498E-01
DAV:   3    -0.191504446193E+03    0.25378E-02   -0.61138E-03 11280   0.560E-01    0.165E-01
DAV:   4    -0.191504609772E+03   -0.16358E-03   -0.18487E-03  9600   0.280E-01    0.219E-01
DAV:   5    -0.191504181630E+03    0.42814E-03   -0.12407E-03  9520   0.250E-01    0.103E-01
DAV:   6    -0.191504124852E+03    0.56777E-04   -0.46030E-04  8480   0.132E-01
  31 F= -.19150412E+03 E0= -.19140665E+03  d E =-.134222E-01
       N       E                     dE             d eps       ncg     rms          rms(c)
DAV:   1    -0.191549643710E+03   -0.45462E-01   -0.54293E+00  8160   0.490E+00    0.575E-01
DAV:   2    -0.191578799089E+03   -0.29155E-01   -0.15647E-01 13560   0.204E+00    0.158E+00
DAV:   3    -0.191554221626E+03    0.24577E-01   -0.61340E-02 12120   0.174E+00    0.498E-01
DAV:   4    -0.191555946841E+03   -0.17252E-02   -0.17235E-02 11640   0.863E-01    0.687E-01
DAV:   5    -0.191551598740E+03    0.43481E-02   -0.10860E-02 11880   0.733E-01    0.268E-01
DAV:   6    -0.191551432671E+03    0.16607E-03   -0.38959E-03 11200   0.378E-01    0.277E-01
DAV:   7    -0.191551177931E+03    0.25474E-03   -0.33396E-03 11440   0.406E-01    0.218E-01
DAV:   8    -0.191550658819E+03    0.51911E-03   -0.99646E-04  9320   0.203E-01    0.396E-02
DAV:   9    -0.191550635804E+03    0.23014E-04   -0.90324E-05  6520   0.396E-02
  32 F= -.19155064E+03 E0= -.19145377E+03  d E =-.465110E-01
       N       E                     dE             d eps       ncg     rms          rms(c)
DAV:   1    -0.191558494857E+03   -0.78360E-02   -0.16057E-01  8160   0.837E-01    0.841E-02
DAV:   2    -0.191559078376E+03   -0.58352E-03   -0.37671E-03 12440   0.250E-01    0.202E-01
DAV:   3    -0.191558701615E+03    0.37676E-03   -0.13114E-03  9800   0.241E-01    0.101E-01
DAV:   4    -0.191558673610E+03    0.28005E-04   -0.37119E-04  7400   0.119E-01
  33 F= -.19155867E+03 E0= -.19146213E+03  d E =-.803781E-02
       N       E                     dE             d eps       ncg     rms          rms(c)
DAV:   1    -0.191557568386E+03    0.11332E-02   -0.35290E-01  8160   0.126E+00    0.209E-01
DAV:   2    -0.191562922559E+03   -0.53542E-02   -0.20976E-02 12720   0.930E-01    0.677E-01
DAV:   3    -0.191557679959E+03    0.52426E-02   -0.80544E-03 10640   0.694E-01    0.148E-01
DAV:   4    -0.191557819981E+03   -0.14002E-03   -0.14864E-03  9560   0.260E-01    0.194E-01
DAV:   5    -0.191557512339E+03    0.30764E-03   -0.10911E-03  9600   0.221E-01    0.101E-01
DAV:   6    -0.191557508560E+03    0.37791E-05   -0.52176E-04  8560   0.144E-01
  34 F= -.19155751E+03 E0= -.19146102E+03  d E =0.116505E-02
       N       E                     dE             d eps       ncg     rms          rms(c)
DAV:   1    -0.191598804322E+03   -0.41292E-01   -0.43316E+00  8160   0.436E+00    0.462E-01
DAV:   2    -0.191616354731E+03   -0.17550E-01   -0.10910E-01 13200   0.161E+00    0.111E+00
DAV:   3    -0.191603247075E+03    0.13108E-01   -0.35815E-02 12280   0.135E+00    0.417E-01
DAV:   4    -0.191603541750E+03   -0.29467E-03   -0.10659E-02 11520   0.645E-01    0.496E-01
DAV:   5    -0.191601695087E+03    0.18467E-02   -0.66330E-03 11320   0.570E-01    0.261E-01
DAV:   6    -0.191600935728E+03    0.75936E-03   -0.20564E-03 11000   0.267E-01    0.974E-02
DAV:   7    -0.191601281089E+03   -0.34536E-03   -0.13414E-03 10720   0.242E-01    0.206E-01
DAV:   8    -0.191600853688E+03    0.42740E-03   -0.83321E-04  9000   0.212E-01    0.484E-02
DAV:   9    -0.191600833270E+03    0.20418E-04   -0.70869E-05  5960   0.472E-02
  35 F= -.19160083E+03 E0= -.19150522E+03  d E =-.433247E-01
       N       E                     dE             d eps       ncg     rms          rms(c)
DAV:   1    -0.191599588811E+03    0.12649E-02   -0.38435E-01  8160   0.132E+00    0.187E-01
DAV:   2    -0.191601946533E+03   -0.23577E-02   -0.13606E-02 13600   0.583E-01    0.490E-01
DAV:   3    -0.191599727807E+03    0.22187E-02   -0.61418E-03 11640   0.564E-01    0.180E-01
DAV:   4    -0.191599374741E+03    0.35307E-03   -0.99455E-04  9840   0.177E-01    0.750E-02
DAV:   5    -0.191599302137E+03    0.72603E-04   -0.40541E-04  8400   0.930E-02
  36 F= -.19159930E+03 E0= -.19150323E+03  d E =0.153113E-02
       N       E                     dE             d eps       ncg     rms          rms(c)
DAV:   1    -0.191546460889E+03    0.52914E-01   -0.92865E+00  8160   0.636E+00    0.692E-01
DAV:   2    -0.191588323921E+03   -0.41863E-01   -0.23779E-01 12280   0.244E+00    0.165E+00
DAV:   3    -0.191555070767E+03    0.33253E-01   -0.65136E-02 11160   0.195E+00    0.547E-01
DAV:   4    -0.191555654375E+03   -0.58361E-03   -0.18834E-02 11360   0.863E-01    0.643E-01
DAV:   5    -0.191552792518E+03    0.28619E-02   -0.12903E-02 10920   0.800E-01    0.392E-01
DAV:   6    -0.191551225282E+03    0.15672E-02   -0.44816E-03 11360   0.426E-01    0.196E-01
DAV:   7    -0.191552325220E+03   -0.10999E-02   -0.47655E-03 11440   0.444E-01    0.393E-01
DAV:   8    -0.191550896417E+03    0.14288E-02   -0.28005E-03  9840   0.335E-01    0.560E-02
DAV:   9    -0.191550875007E+03    0.21411E-04   -0.13095E-04  5720   0.515E-02
  37 F= -.19155088E+03 E0= -.19145311E+03  d E =0.484271E-01
       N       E                     dE             d eps       ncg     rms          rms(c)
DAV:   1    -0.191569121775E+03   -0.18225E-01   -0.18362E+00  8160   0.288E+00    0.344E-01
DAV:   2    -0.191580679264E+03   -0.11557E-01   -0.61366E-02 13600   0.121E+00    0.101E+00
DAV:   3    -0.191571179459E+03    0.94998E-02   -0.23619E-02 12520   0.108E+00    0.279E-01
DAV:   4    -0.191570464713E+03    0.71475E-03   -0.27509E-03 11320   0.281E-01    0.172E-01
DAV:   5    -0.191570688613E+03   -0.22390E-03   -0.24231E-03 11400   0.325E-01    0.266E-01
DAV:   6    -0.191570162739E+03    0.52587E-03   -0.20086E-03  9960   0.281E-01    0.116E-01
DAV:   7    -0.191570190188E+03   -0.27448E-04   -0.74634E-04  8400   0.192E-01
  38 F= -.19157019E+03 E0= -.19147261E+03  d E =-.193152E-01
       N       E                     dE             d eps       ncg     rms          rms(c)
DAV:   1    -0.191599552129E+03   -0.29389E-01   -0.24130E+00  8160   0.325E+00    0.302E-01
DAV:   2    -0.191605102521E+03   -0.55504E-02   -0.49753E-02 12320   0.804E-01    0.542E-01
DAV:   3    -0.191602934757E+03    0.21678E-02   -0.14066E-02 12160   0.777E-01    0.392E-01
DAV:   4    -0.191602252963E+03    0.68179E-03   -0.54279E-03 11240   0.455E-01    0.292E-01
DAV:   5    -0.191601593202E+03    0.65976E-03   -0.25921E-03  9760   0.364E-01    0.173E-01
DAV:   6    -0.191601333138E+03    0.26006E-03   -0.99579E-04 10360   0.201E-01    0.726E-02
DAV:   7    -0.191601306636E+03    0.26502E-04   -0.34336E-04  8640   0.905E-02
  39 F= -.19160131E+03 E0= -.19150488E+03  d E =-.311164E-01
       N       E                     dE             d eps       ncg     rms          rms(c)
DAV:   1    -0.191616702787E+03   -0.15370E-01   -0.76087E-01  8160   0.185E+00    0.179E-01
DAV:   2    -0.191618105888E+03   -0.14031E-02   -0.17756E-02 13160   0.449E-01    0.241E-01
DAV:   3    -0.191618128867E+03   -0.22979E-04   -0.36165E-03 11560   0.424E-01    0.265E-01
DAV:   4    -0.191617497358E+03    0.63151E-03   -0.15218E-03  9600   0.266E-01    0.108E-01
DAV:   5    -0.191617506302E+03   -0.89442E-05   -0.66880E-04  8360   0.182E-01
  40 F= -.19161751E+03 E0= -.19152208E+03  d E =-.161997E-01
       N       E                     dE             d eps       ncg     rms          rms(c)
DAV:   1    -0.191585385140E+03    0.32112E-01   -0.45626E+00  8160   0.454E+00    0.495E-01
DAV:   2    -0.191607850577E+03   -0.22465E-01   -0.13665E-01 13600   0.165E+00    0.136E+00
DAV:   3    -0.191591610187E+03    0.16240E-01   -0.50799E-02 12120   0.152E+00    0.479E-01
DAV:   4    -0.191589865739E+03    0.17444E-02   -0.78399E-03 11400   0.506E-01    0.298E-01
DAV:   5    -0.191589600215E+03    0.26552E-03   -0.47096E-03 11000   0.487E-01    0.322E-01
DAV:   6    -0.191588869613E+03    0.73060E-03   -0.36738E-03 11320   0.397E-01    0.200E-01
DAV:   7    -0.191589116916E+03   -0.24730E-03   -0.24217E-03  9920   0.342E-01    0.235E-01
DAV:   8    -0.191588476036E+03    0.64088E-03   -0.86502E-04  9360   0.213E-01    0.219E-02
DAV:   9    -0.191588483299E+03   -0.72624E-05   -0.56675E-05  6480   0.282E-02
  41 F= -.19158848E+03 E0= -.19149188E+03  d E =0.290230E-01
       N       E                     dE             d eps       ncg     rms          rms(c)
DAV:   1    -0.191609025294E+03   -0.20549E-01   -0.40943E+00  8160   0.422E+00    0.450E-01
DAV:   2    -0.191626287961E+03   -0.17263E-01   -0.97376E-02 12240   0.147E+00    0.116E+00
DAV:   3    -0.191613207665E+03    0.13080E-01   -0.38792E-02 12000   0.137E+00    0.438E-01
DAV:   4    -0.191612726238E+03    0.48143E-03   -0.84416E-03 11440   0.597E-01    0.393E-01
DAV:   5    -0.191611474221E+03    0.12520E-02   -0.46352E-03 10880   0.514E-01    0.235E-01
DAV:   6    -0.191610888996E+03    0.58522E-03   -0.18958E-03 11320   0.275E-01    0.122E-01
DAV:   7    -0.191611375090E+03   -0.48609E-03   -0.18607E-03 10640   0.288E-01    0.252E-01
DAV:   8    -0.191610755917E+03    0.61917E-03   -0.10696E-03  9520   0.221E-01    0.354E-02
DAV:   9    -0.191610753221E+03    0.26959E-05   -0.54144E-05  5840   0.337E-02
  42 F= -.19161075E+03 E0= -.19151502E+03  d E =-.222699E-01
       N       E                     dE             d eps       ncg     rms          rms(c)
DAV:   1    -0.191635272663E+03   -0.24517E-01   -0.32018E+00  8160   0.379E+00    0.403E-01
DAV:   2    -0.191650035896E+03   -0.14763E-01   -0.88398E-02 13520   0.133E+00    0.108E+00
DAV:   3    -0.191639429775E+03    0.10606E-01   -0.29332E-02 12320   0.121E+00    0.366E-01
DAV:   4    -0.191638520333E+03    0.90944E-03   -0.46218E-03 11240   0.381E-01    0.268E-01
DAV:   5    -0.191638438522E+03    0.81811E-04   -0.37760E-03 12400   0.413E-01    0.293E-01
DAV:   6    -0.191637739103E+03    0.69942E-03   -0.21586E-03  9760   0.292E-01    0.930E-02
DAV:   7    -0.191637648144E+03    0.90959E-04   -0.41695E-04  9680   0.945E-02
  43 F= -.19163765E+03 E0= -.19154246E+03  d E =-.268949E-01
       N       E                     dE             d eps       ncg     rms          rms(c)
DAV:   1    -0.191549847949E+03    0.87891E-01   -0.13593E+01  8160   0.780E+00    0.755E-01
DAV:   2    -0.191591796774E+03   -0.41949E-01   -0.33740E-01 12960   0.220E+00    0.163E+00
DAV:   3    -0.191570781552E+03    0.21015E-01   -0.89691E-02 12240   0.205E+00    0.838E-01
DAV:   4    -0.191564832884E+03    0.59487E-02   -0.18040E-02 12120   0.815E-01    0.432E-01
DAV:   5    -0.191564458589E+03    0.37429E-03   -0.10796E-02 11520   0.730E-01    0.488E-01
DAV:   6    -0.191563310616E+03    0.11480E-02   -0.84531E-03 11360   0.622E-01    0.350E-01
DAV:   7    -0.191563241826E+03    0.68790E-04   -0.57439E-03 11480   0.528E-01    0.333E-01
DAV:   8    -0.191561984308E+03    0.12575E-02   -0.20867E-03  9720   0.324E-01    0.470E-02
DAV:   9    -0.191561977197E+03    0.71110E-05   -0.17613E-04  7160   0.541E-02
  44 F= -.19156198E+03 E0= -.19146524E+03  d E =0.756709E-01
       N       E                     dE             d eps       ncg     rms          rms(c)
DAV:   1    -0.191477480915E+03    0.84503E-01   -0.27193E+01  8160   0.110E+01    0.110E+00
DAV:   2    -0.191559993756E+03   -0.82513E-01   -0.68326E-01 13440   0.304E+00    0.234E+00
DAV:   3    -0.191523859004E+03    0.36135E-01   -0.21012E-01 12160   0.306E+00    0.136E+00
DAV:   4    -0.191505874477E+03    0.17985E-01   -0.41987E-02 12880   0.122E+00    0.522E-01
DAV:   5    -0.191504840888E+03    0.10336E-02   -0.18068E-02 10960   0.791E-01    0.695E-01
DAV:   6    -0.191503129405E+03    0.17115E-02   -0.20195E-02 11640   0.934E-01    0.512E-01
DAV:   7    -0.191500763395E+03    0.23660E-02   -0.60576E-03 12400   0.451E-01    0.111E-01
DAV:   8    -0.191500536784E+03    0.22661E-03   -0.74906E-04 10680   0.117E-01    0.509E-02
DAV:   9    -0.191500551208E+03   -0.14424E-04   -0.24082E-04  9120   0.987E-02
  45 F= -.19150055E+03 E0= -.19140358E+03  d E =0.614260E-01
       N       E                     dE             d eps       ncg     rms          rms(c)
DAV:   1    -0.191504065278E+03   -0.35285E-02   -0.16906E+00  8160   0.273E+00    0.272E-01
DAV:   2    -0.191509133006E+03   -0.50677E-02   -0.40920E-02 12720   0.819E-01    0.551E-01
DAV:   3    -0.191506699981E+03    0.24330E-02   -0.11449E-02 11520   0.744E-01    0.330E-01
DAV:   4    -0.191505985166E+03    0.71481E-03   -0.34181E-03 11640   0.384E-01    0.214E-01
DAV:   5    -0.191505719558E+03    0.26561E-03   -0.16988E-03  9640   0.306E-01    0.164E-01
DAV:   6    -0.191505436913E+03    0.28264E-03   -0.78486E-04  9920   0.186E-01    0.669E-02
DAV:   7    -0.191505692194E+03   -0.25528E-03   -0.77124E-04  8880   0.183E-01    0.174E-01
DAV:   8    -0.191505392284E+03    0.29991E-03   -0.48453E-04  8200   0.150E-01    0.166E-02
DAV:   9    -0.191505407813E+03   -0.15529E-04   -0.26481E-05  5680   0.206E-02
  46 F= -.19150541E+03 E0= -.19140812E+03  d E =-.485660E-02
       N       E                     dE             d eps       ncg     rms          rms(c)
DAV:   1    -0.191536858786E+03   -0.31467E-01   -0.37017E+00  8160   0.400E+00    0.442E-01
DAV:   2    -0.191551505419E+03   -0.14647E-01   -0.98712E-02 12560   0.146E+00    0.971E-01
DAV:   3    -0.191540939553E+03    0.10566E-01   -0.31254E-02 12520   0.126E+00    0.387E-01
DAV:   4    -0.191540728675E+03    0.21088E-03   -0.84640E-03 11600   0.566E-01    0.418E-01
DAV:   5    -0.191539712799E+03    0.10159E-02   -0.58576E-03 11640   0.519E-01    0.287E-01
DAV:   6    -0.191538843875E+03    0.86892E-03   -0.20172E-03 10800   0.284E-01    0.878E-02
DAV:   7    -0.191539202686E+03   -0.35881E-03   -0.11960E-03 10600   0.221E-01    0.201E-01
DAV:   8    -0.191538809502E+03    0.39318E-03   -0.85248E-04  9080   0.206E-01    0.527E-02
DAV:   9    -0.191538783155E+03    0.26347E-04   -0.76401E-05  6120   0.497E-02
  47 F= -.19153878E+03 E0= -.19144138E+03  d E =-.333753E-01
       N       E                     dE             d eps       ncg     rms          rms(c)
DAV:   1    -0.191560856412E+03   -0.22047E-01   -0.16683E+00  8160   0.270E+00    0.305E-01
DAV:   2    -0.191567874453E+03   -0.70180E-02   -0.45455E-02 12520   0.103E+00    0.690E-01
DAV:   3    -0.191562441782E+03    0.54327E-02   -0.14857E-02 12320   0.875E-01    0.256E-01
DAV:   4    -0.191562550580E+03   -0.10880E-03   -0.40556E-03 11280   0.397E-01    0.303E-01
DAV:   5    -0.191561944025E+03    0.60655E-03   -0.28020E-03 10480   0.367E-01    0.189E-01
DAV:   6    -0.191561582067E+03    0.36196E-03   -0.95963E-04 10240   0.194E-01    0.710E-02
DAV:   7    -0.191561789587E+03   -0.20752E-03   -0.70893E-04  9320   0.179E-01    0.159E-01
DAV:   8    -0.191561542721E+03    0.24687E-03   -0.49445E-04  8760   0.157E-01    0.314E-02
DAV:   9    -0.191561539707E+03    0.30138E-05   -0.37810E-05  6080   0.317E-02
  48 F= -.19156154E+03 E0= -.19146401E+03  d E =-.227566E-01
       N       E                     dE             d eps       ncg     rms          rms(c)
DAV:   1    -0.191603364811E+03   -0.41822E-01   -0.64691E+00  8160   0.534E+00    0.619E-01
DAV:   2    -0.191630725681E+03   -0.27361E-01   -0.18611E-01 12720   0.208E+00    0.140E+00
DAV:   3    -0.191609824882E+03    0.20901E-01   -0.61729E-02 12280   0.177E+00    0.528E-01
DAV:   4    -0.191610596294E+03   -0.77141E-03   -0.17695E-02 11800   0.852E-01    0.668E-01
DAV:   5    -0.191607213813E+03    0.33825E-02   -0.12227E-02 12400   0.779E-01    0.362E-01
DAV:   6    -0.191605878027E+03    0.13358E-02   -0.42364E-03 11280   0.396E-01    0.178E-01
DAV:   7    -0.191606673600E+03   -0.79557E-03   -0.36101E-03 11840   0.407E-01    0.336E-01
DAV:   8    -0.191605571916E+03    0.11017E-02   -0.21508E-03 10560   0.315E-01    0.544E-02
DAV:   9    -0.191605538729E+03    0.33187E-04   -0.11761E-04  6080   0.522E-02
  49 F= -.19160554E+03 E0= -.19150756E+03  d E =-.439990E-01
       N       E                     dE             d eps       ncg     rms          rms(c)
DAV:   1    -0.191662007485E+03   -0.56436E-01   -0.27686E+01  8160   0.111E+01    0.118E+00
DAV:   2    -0.191748074502E+03   -0.86067E-01   -0.74947E-01 11960   0.363E+00    0.228E+00
DAV:   3    -0.191702059003E+03    0.46015E-01   -0.21390E-01 12320   0.319E+00    0.118E+00
DAV:   4    -0.191699242385E+03    0.28166E-02   -0.64231E-02 11920   0.170E+00    0.119E+00
DAV:   5    -0.191687216156E+03    0.12026E-01   -0.39758E-02 12120   0.146E+00    0.670E-01
DAV:   6    -0.191683460866E+03    0.37553E-02   -0.16936E-02 12320   0.808E-01    0.403E-01
DAV:   7    -0.191686049199E+03   -0.25883E-02   -0.14830E-02 12280   0.838E-01    0.673E-01
DAV:   8    -0.191681607703E+03    0.44415E-02   -0.88257E-03 11840   0.634E-01    0.105E-01
DAV:   9    -0.191681445458E+03    0.16224E-03   -0.55849E-04 10200   0.101E-01    0.398E-02
DAV:  10    -0.191681421984E+03    0.23474E-04   -0.15269E-04  7360   0.396E-02
  50 F= -.19168142E+03 E0= -.19158223E+03  d E =-.758833E-01
       N       E                     dE             d eps       ncg     rms          rms(c)
DAV:   1    -0.191657128970E+03    0.24316E-01   -0.44160E+00  8160   0.438E+00    0.432E-01
DAV:   2    -0.191666526780E+03   -0.93978E-02   -0.94847E-02 11800   0.105E+00    0.677E-01
DAV:   3    -0.191662227328E+03    0.42995E-02   -0.23619E-02 11080   0.106E+00    0.488E-01
DAV:   4    -0.191660988405E+03    0.12389E-02   -0.88786E-03 11680   0.632E-01    0.367E-01
DAV:   5    -0.191660314656E+03    0.67375E-03   -0.51505E-03 10720   0.517E-01    0.294E-01
DAV:   6    -0.191659509975E+03    0.80468E-03   -0.23766E-03 10400   0.336E-01    0.124E-01
DAV:   7    -0.191659761038E+03   -0.25106E-03   -0.14408E-03 10400   0.242E-01    0.206E-01
DAV:   8    -0.191659370684E+03    0.39035E-03   -0.98427E-04  8560   0.217E-01    0.650E-02
DAV:   9    -0.191659323462E+03    0.47222E-04   -0.10570E-04  5920   0.597E-02
  51 F= -.19165932E+03 E0= -.19156045E+03  d E =0.220985E-01
       N       E                     dE             d eps       ncg     rms          rms(c)
DAV:   1    -0.191680917378E+03   -0.21547E-01   -0.22223E+00  8160   0.317E+00    0.339E-01
DAV:   2    -0.191687070831E+03   -0.61535E-02   -0.62737E-02 12920   0.957E-01    0.582E-01
DAV:   3    -0.191684536857E+03    0.25340E-02   -0.14848E-02 12280   0.846E-01    0.390E-01
DAV:   4    -0.191683954129E+03    0.58273E-03   -0.58248E-03 12040   0.514E-01    0.323E-01
DAV:   5    -0.191683009534E+03    0.94459E-03   -0.30536E-03 11040   0.413E-01    0.188E-01
DAV:   6    -0.191682789348E+03    0.22019E-03   -0.14984E-03 10160   0.249E-01    0.125E-01
DAV:   7    -0.191682965704E+03   -0.17636E-03   -0.12575E-03 10320   0.240E-01    0.190E-01
DAV:   8    -0.191682589176E+03    0.37653E-03   -0.66361E-04  8240   0.177E-01    0.247E-02
DAV:   9    -0.191682595496E+03   -0.63202E-05   -0.39704E-05  5600   0.277E-02
  52 F= -.19168260E+03 E0= -.19158331E+03  d E =-.232720E-01
       N       E                     dE             d eps       ncg     rms          rms(c)
DAV:   1    -0.191703077775E+03   -0.20489E-01   -0.19492E+00  8160   0.300E+00    0.334E-01
DAV:   2    -0.191708362989E+03   -0.52852E-02   -0.59996E-02 13040   0.881E-01    0.537E-01
DAV:   3    -0.191706908675E+03    0.14543E-02   -0.13881E-02 12360   0.817E-01    0.429E-01
DAV:   4    -0.191705682076E+03    0.12266E-02   -0.54875E-03 12160   0.502E-01    0.267E-01
DAV:   5    -0.191705028907E+03    0.65317E-03   -0.25068E-03 10480   0.374E-01    0.184E-01
DAV:   6    -0.191704901812E+03    0.12709E-03   -0.15758E-03 10400   0.267E-01    0.143E-01
DAV:   7    -0.191704938358E+03   -0.36546E-04   -0.11718E-03 10200   0.234E-01    0.168E-01
DAV:   8    -0.191704637175E+03    0.30118E-03   -0.54320E-04  8240   0.161E-01    0.232E-02
DAV:   9    -0.191704641275E+03   -0.41005E-05   -0.34040E-05  5640   0.258E-02
  53 F= -.19170464E+03 E0= -.19160486E+03  d E =-.220458E-01
       N       E                     dE             d eps       ncg     rms          rms(c)
DAV:   1    -0.191731995916E+03   -0.27359E-01   -0.39688E+00  8160   0.429E+00    0.457E-01
DAV:   2    -0.191742643111E+03   -0.10647E-01   -0.11755E-01 12840   0.119E+00    0.744E-01
DAV:   3    -0.191740238670E+03    0.24044E-02   -0.26657E-02 12400   0.113E+00    0.610E-01
DAV:   4    -0.191737098579E+03    0.31401E-02   -0.91231E-03 12320   0.634E-01    0.282E-01
DAV:   5    -0.191736367603E+03    0.73098E-03   -0.36518E-03 11320   0.417E-01    0.244E-01
DAV:   6    -0.191736440485E+03   -0.72882E-04   -0.33631E-03 12240   0.405E-01    0.245E-01
DAV:   7    -0.191736122206E+03    0.31828E-03   -0.20947E-03 10120   0.315E-01    0.188E-01
DAV:   8    -0.191735729672E+03    0.39253E-03   -0.74454E-04  8280   0.195E-01    0.307E-02
DAV:   9    -0.191735726095E+03    0.35774E-05   -0.53385E-05  6480   0.341E-02
  54 F= -.19173573E+03 E0= -.19163522E+03  d E =-.310848E-01
       N       E                     dE             d eps       ncg     rms          rms(c)
DAV:   1    -0.191734510665E+03    0.12190E-02   -0.26477E-02  8160   0.344E-01    0.352E-02
DAV:   2    -0.191734559645E+03   -0.48980E-04   -0.59648E-04 11000   0.916E-02
  55 F= -.19173456E+03 E0= -.19163423E+03  d E =0.116645E-02
       N       E                     dE             d eps       ncg     rms          rms(c)
DAV:   1    -0.191736536950E+03   -0.20263E-02   -0.18706E-02  8160   0.303E-01    0.498E-02
DAV:   2    -0.191737033751E+03   -0.49680E-03   -0.13930E-03 10960   0.230E-01    0.217E-01
DAV:   3    -0.191736537460E+03    0.49629E-03   -0.77840E-04  8920   0.201E-01    0.304E-02
DAV:   4    -0.191736557579E+03   -0.20120E-04   -0.56513E-05  5880   0.534E-02
  56 F= -.19173656E+03 E0= -.19163599E+03  d E =-.199793E-02
       N       E                     dE             d eps       ncg     rms          rms(c)
DAV:   1    -0.191748548070E+03   -0.12011E-01   -0.72041E-01  8160   0.181E+00    0.190E-01
DAV:   2    -0.191751455779E+03   -0.29077E-02   -0.22088E-02 12080   0.570E-01    0.422E-01
DAV:   3    -0.191749932410E+03    0.15234E-02   -0.56735E-03 11960   0.531E-01    0.210E-01
DAV:   4    -0.191749610955E+03    0.32146E-03   -0.12036E-03  9640   0.215E-01    0.111E-01
DAV:   5    -0.191749543611E+03    0.67343E-04   -0.64270E-04  9360   0.172E-01
  57 F= -.19174954E+03 E0= -.19164918E+03  d E =-.129860E-01
       N       E                     dE             d eps       ncg     rms          rms(c)
DAV:   1    -0.191734792583E+03    0.14818E-01   -0.82285E-01  8160   0.194E+00    0.222E-01
DAV:   2    -0.191741860075E+03   -0.70675E-02   -0.35065E-02 12960   0.855E-01    0.746E-01
DAV:   3    -0.191736465914E+03    0.53942E-02   -0.12274E-02 11440   0.767E-01    0.197E-01
DAV:   4    -0.191736153654E+03    0.31226E-03   -0.14518E-03 10200   0.196E-01    0.100E-01
DAV:   5    -0.191736050649E+03    0.10301E-03   -0.52447E-04  9400   0.140E-01    0.952E-02
DAV:   6    -0.191736031402E+03    0.19246E-04   -0.42853E-04  8840   0.151E-01
  58 F= -.19173603E+03 E0= -.19163541E+03  d E =0.135122E-01
       N       E                     dE             d eps       ncg     rms          rms(c)
DAV:   1    -0.191732667601E+03    0.33830E-02   -0.98154E-02  8160   0.677E-01    0.112E-01
DAV:   2    -0.191734006519E+03   -0.13389E-02   -0.61232E-03 12280   0.443E-01    0.328E-01
DAV:   3    -0.191732780355E+03    0.12262E-02   -0.23651E-03 11360   0.369E-01    0.817E-02
DAV:   4    -0.191732899482E+03   -0.11913E-03   -0.58300E-04  8400   0.168E-01    0.133E-01
DAV:   5    -0.191732710986E+03    0.18850E-03   -0.30075E-04  7640   0.120E-01    0.254E-02
DAV:   6    -0.191732743289E+03   -0.32303E-04   -0.87776E-05  6160   0.613E-02
  59 F= -.19173274E+03 E0= -.19163199E+03  d E =0.328811E-02
       N       E                     dE             d eps       ncg     rms          rms(c)
DAV:   1    -0.191733350613E+03   -0.63963E-03   -0.70776E-03  8160   0.195E-01    0.422E-02
DAV:   2    -0.191733729823E+03   -0.37921E-03   -0.99879E-04 11280   0.203E-01    0.191E-01
DAV:   3    -0.191733334977E+03    0.39485E-03   -0.59640E-04  8640   0.180E-01    0.238E-02
DAV:   4    -0.191733342663E+03   -0.76860E-05   -0.32725E-05  5840   0.281E-02
  60 F= -.19173334E+03 E0= -.19163269E+03  d E =-.599374E-03
       N       E                     dE             d eps       ncg     rms          rms(c)
DAV:   1    -0.191749490500E+03   -0.16156E-01   -0.12489E+00  8160   0.239E+00    0.250E-01
DAV:   2    -0.191754032407E+03   -0.45419E-02   -0.39094E-02 13040   0.733E-01    0.509E-01
DAV:   3    -0.191752137990E+03    0.18944E-02   -0.91134E-03 12240   0.669E-01    0.293E-01
DAV:   4    -0.191751399549E+03    0.73844E-03   -0.21495E-03 10880   0.286E-01    0.140E-01
DAV:   5    -0.191751314957E+03    0.84592E-04   -0.10882E-03 10200   0.218E-01    0.147E-01
DAV:   6    -0.191751285817E+03    0.29140E-04   -0.10030E-03  8680   0.219E-01    0.128E-01
DAV:   7    -0.191751195232E+03    0.90584E-04   -0.54545E-04  8320   0.159E-01
  61 F= -.19175120E+03 E0= -.19164991E+03  d E =-.178526E-01
       N       E                     dE             d eps       ncg     rms          rms(c)
DAV:   1    -0.191740210091E+03    0.11076E-01   -0.45821E-01  8160   0.146E+00    0.154E-01
DAV:   2    -0.191741583343E+03   -0.13733E-02   -0.13304E-02 13200   0.418E-01    0.295E-01
DAV:   3    -0.191741019485E+03    0.56386E-03   -0.33226E-03 11480   0.401E-01    0.194E-01
DAV:   4    -0.191740655156E+03    0.36433E-03   -0.87563E-04  9160   0.179E-01    0.747E-02
DAV:   5    -0.191740674771E+03   -0.19615E-04   -0.42794E-04  8560   0.136E-01
  62 F= -.19174067E+03 E0= -.19163985E+03  d E =0.105205E-01
       N       E                     dE             d eps       ncg     rms          rms(c)
DAV:   1    -0.191715998490E+03    0.24657E-01   -0.26565E+00  8160   0.349E+00    0.383E-01
DAV:   2    -0.191722617744E+03   -0.66193E-02   -0.74534E-02 12480   0.970E-01    0.643E-01
DAV:   3    -0.191720912063E+03    0.17057E-02   -0.18519E-02 12200   0.939E-01    0.523E-01
DAV:   4    -0.191718154823E+03    0.27572E-02   -0.56186E-03 10960   0.468E-01    0.150E-01
DAV:   5    -0.191718729510E+03   -0.57469E-03   -0.26732E-03 11240   0.336E-01    0.293E-01
DAV:   6    -0.191718080983E+03    0.64853E-03   -0.25527E-03 10240   0.356E-01    0.137E-01
DAV:   7    -0.191717879327E+03    0.20166E-03   -0.51243E-04  8760   0.138E-01    0.439E-02
DAV:   8    -0.191717869607E+03    0.97197E-05   -0.10401E-04  7480   0.748E-02
  63 F= -.19171787E+03 E0= -.19161781E+03  d E =0.228052E-01
       N       E                     dE             d eps       ncg     rms          rms(c)
DAV:   1    -0.191713844867E+03    0.40345E-02   -0.19417E-01  8160   0.935E-01    0.952E-02
DAV:   2    -0.191714635587E+03   -0.79072E-03   -0.53034E-03 12520   0.303E-01    0.243E-01
DAV:   3    -0.191714127089E+03    0.50850E-03   -0.16341E-03 10040   0.274E-01    0.960E-02
DAV:   4    -0.191714080080E+03    0.47009E-04   -0.24986E-04  7120   0.101E-01
  64 F= -.19171408E+03 E0= -.19161414E+03  d E =0.378953E-02
       N       E                     dE             d eps       ncg     rms          rms(c)
DAV:   1    -0.191719052831E+03   -0.49257E-02   -0.89723E-01  8160   0.202E+00    0.209E-01
DAV:   2    -0.191721259985E+03   -0.22072E-02   -0.27677E-02 12000   0.477E-01    0.239E-01
DAV:   3    -0.191721702877E+03   -0.44289E-03   -0.51729E-03 12360   0.490E-01    0.344E-01
DAV:   4    -0.191720629194E+03    0.10737E-02   -0.22345E-03 10080   0.330E-01    0.117E-01
DAV:   5    -0.191720586047E+03    0.43146E-04   -0.71418E-04  9080   0.195E-01
  65 F= -.19172059E+03 E0= -.19162080E+03  d E =-.650597E-02
       N       E                     dE             d eps       ncg     rms          rms(c)
DAV:   1    -0.191725357151E+03   -0.47280E-02   -0.86245E-01  8160   0.199E+00    0.224E-01
DAV:   2    -0.191729398546E+03   -0.40414E-02   -0.25313E-02 13040   0.698E-01    0.560E-01
DAV:   3    -0.191726472248E+03    0.29263E-02   -0.75525E-03 12480   0.630E-01    0.191E-01
DAV:   4    -0.191726254558E+03    0.21769E-03   -0.10411E-03 10040   0.206E-01    0.128E-01
DAV:   5    -0.191726181940E+03    0.72618E-04   -0.82118E-04 10680   0.223E-01
  66 F= -.19172618E+03 E0= -.19162666E+03  d E =-.559589E-02
       N       E                     dE             d eps       ncg     rms          rms(c)
DAV:   1    -0.191736718986E+03   -0.10464E-01   -0.34269E+00  8160   0.397E+00    0.454E-01
DAV:   2    -0.191757157334E+03   -0.20438E-01   -0.11431E-01 11760   0.151E+00    0.135E+00
DAV:   3    -0.191741713384E+03    0.15444E-01   -0.45360E-02 12440   0.140E+00    0.397E-01
DAV:   4    -0.191740758747E+03    0.95464E-03   -0.52829E-03 11440   0.419E-01    0.274E-01
DAV:   5    -0.191740566606E+03    0.19214E-03   -0.42710E-03 11760   0.454E-01    0.305E-01
DAV:   6    -0.191740041348E+03    0.52526E-03   -0.29807E-03 11240   0.358E-01    0.175E-01
DAV:   7    -0.191739968742E+03    0.72607E-04   -0.13516E-03 10040   0.277E-01    0.149E-01
DAV:   8    -0.191739673334E+03    0.29541E-03   -0.46070E-04  8880   0.166E-01    0.242E-02
DAV:   9    -0.191739671946E+03    0.13884E-05   -0.50505E-05  6720   0.309E-02
  67 F= -.19173967E+03 E0= -.19164067E+03  d E =-.134900E-01
       N       E                     dE             d eps       ncg     rms          rms(c)
DAV:   1    -0.191748481052E+03   -0.88077E-02   -0.15771E+00  8160   0.269E+00    0.289E-01
DAV:   2    -0.191753584887E+03   -0.51038E-02   -0.45585E-02 12360   0.778E-01    0.570E-01
DAV:   3    -0.191751348586E+03    0.22363E-02   -0.12802E-02 12640   0.766E-01    0.347E-01
DAV:   4    -0.191750468948E+03    0.87964E-03   -0.30119E-03 11160   0.362E-01    0.201E-01
DAV:   5    -0.191750178172E+03    0.29078E-03   -0.15239E-03 11480   0.315E-01    0.147E-01
DAV:   6    -0.191750209548E+03   -0.31376E-04   -0.10915E-03 10000   0.219E-01    0.157E-01
DAV:   7    -0.191750020445E+03    0.18910E-03   -0.79855E-04  8960   0.200E-01    0.805E-02
DAV:   8    -0.191749946941E+03    0.73504E-04   -0.14974E-04  6360   0.824E-02
  68 F= -.19174995E+03 E0= -.19165173E+03  d E =-.102750E-01
       N       E                     dE             d eps       ncg     rms          rms(c)
DAV:   1    -0.191759244014E+03   -0.92236E-02   -0.96071E-01  8160   0.210E+00    0.239E-01
DAV:   2    -0.191762020612E+03   -0.27766E-02   -0.31360E-02 12720   0.581E-01    0.363E-01
DAV:   3    -0.191761624700E+03    0.39591E-03   -0.74483E-03 12040   0.605E-01    0.342E-01
DAV:   4    -0.191760647984E+03    0.97672E-03   -0.25638E-03 10960   0.347E-01    0.161E-01
DAV:   5    -0.191760469270E+03    0.17871E-03   -0.10167E-03 10120   0.252E-01    0.121E-01
DAV:   6    -0.191760404037E+03    0.65233E-04   -0.57313E-04  9320   0.163E-01
  69 F= -.19176040E+03 E0= -.19166292E+03  d E =-.104571E-01
       N       E                     dE             d eps       ncg     rms          rms(c)
DAV:   1    -0.191760584789E+03   -0.11552E-03   -0.13617E-01  8160   0.795E-01    0.108E-01
DAV:   2    -0.191762280654E+03   -0.16959E-02   -0.66740E-03 12840   0.415E-01    0.389E-01
DAV:   3    -0.191760769413E+03    0.15112E-02   -0.31776E-03 11520   0.393E-01    0.817E-02
DAV:   4    -0.191760739215E+03    0.30198E-04   -0.19700E-04  6760   0.742E-02
  70 F= -.19176074E+03 E0= -.19166310E+03  d E =-.335178E-03
       N       E                     dE             d eps       ncg     rms          rms(c)
DAV:   1    -0.191770074519E+03   -0.93051E-02   -0.13102E+00  8160   0.245E+00    0.297E-01
DAV:   2    -0.191778120875E+03   -0.80464E-02   -0.53726E-02 12440   0.933E-01    0.735E-01
DAV:   3    -0.191773090201E+03    0.50307E-02   -0.14774E-02 12240   0.869E-01    0.293E-01
DAV:   4    -0.191772589573E+03    0.50063E-03   -0.25616E-03 11120   0.321E-01    0.201E-01
DAV:   5    -0.191772230336E+03    0.35924E-03   -0.14451E-03 11280   0.293E-01    0.156E-01
DAV:   6    -0.191772246040E+03   -0.15704E-04   -0.11482E-03 10120   0.230E-01    0.148E-01
DAV:   7    -0.191772167459E+03    0.78581E-04   -0.95941E-04  9800   0.209E-01
  71 F= -.19177217E+03 E0= -.19167465E+03  d E =-.114282E-01
       N       E                     dE             d eps       ncg     rms          rms(c)
DAV:   1    -0.191768571385E+03    0.36747E-02   -0.10626E-01  8160   0.709E-01    0.735E-02
DAV:   2    -0.191768931009E+03   -0.35962E-03   -0.34707E-03 12000   0.198E-01    0.131E-01
DAV:   3    -0.191768812189E+03    0.11882E-03   -0.75921E-04  9920   0.194E-01    0.935E-02
DAV:   4    -0.191768751080E+03    0.61109E-04   -0.21734E-04  5840   0.106E-01
  72 F= -.19176875E+03 E0= -.19167147E+03  d E =0.341638E-02
       N       E                     dE             d eps       ncg     rms          rms(c)
DAV:   1    -0.191772448334E+03   -0.36361E-02   -0.22292E-01  8160   0.101E+00    0.137E-01
DAV:   2    -0.191774186008E+03   -0.17377E-02   -0.10256E-02 11560   0.512E-01    0.363E-01
DAV:   3    -0.191772819804E+03    0.13662E-02   -0.30734E-03 11160   0.416E-01    0.117E-01
DAV:   4    -0.191772823810E+03   -0.40064E-05   -0.63609E-04  8160   0.189E-01
  73 F= -.19177282E+03 E0= -.19167541E+03  d E =-.407273E-02
       N       E                     dE             d eps       ncg     rms          rms(c)
DAV:   1    -0.191775002822E+03   -0.21830E-02   -0.56142E-02  8160   0.527E-01    0.103E-01
DAV:   2    -0.191775565897E+03   -0.56307E-03   -0.29538E-03 11360   0.336E-01    0.253E-01
DAV:   3    -0.191774879860E+03    0.68604E-03   -0.13555E-03 10040   0.288E-01    0.847E-02
DAV:   4    -0.191774973702E+03   -0.93842E-04   -0.59474E-04  8680   0.170E-01
  74 F= -.19177497E+03 E0= -.19167814E+03  d E =-.214989E-02
       N       E                     dE             d eps       ncg     rms          rms(c)
DAV:   1    -0.191778134369E+03   -0.32545E-02   -0.11260E-01  8160   0.753E-01    0.113E-01
DAV:   2    -0.191778235373E+03   -0.10100E-03   -0.40570E-03 12240   0.199E-01    0.118E-01
DAV:   3    -0.191778429429E+03   -0.19406E-03   -0.14263E-03 10920   0.261E-01    0.199E-01
DAV:   4    -0.191778038158E+03    0.39127E-03   -0.73496E-04  8160   0.192E-01    0.512E-02
DAV:   5    -0.191778045632E+03   -0.74741E-05   -0.17625E-04  6080   0.925E-02
  75 F= -.19177805E+03 E0= -.19168137E+03  d E =-.307193E-02
       N       E                     dE             d eps       ncg     rms          rms(c)
DAV:   1    -0.191786422711E+03   -0.83846E-02   -0.74560E-01  8160   0.187E+00    0.227E-01
DAV:   2    -0.191789456380E+03   -0.30337E-02   -0.26724E-02 13360   0.618E-01    0.450E-01
DAV:   3    -0.191787925307E+03    0.15311E-02   -0.65532E-03 12240   0.601E-01    0.254E-01
DAV:   4    -0.191787264726E+03    0.66058E-03   -0.13326E-03 10200   0.236E-01    0.998E-02
DAV:   5    -0.191787374850E+03   -0.11012E-03   -0.82195E-04 11160   0.227E-01    0.149E-01
DAV:   6    -0.191787220891E+03    0.15396E-03   -0.64568E-04  8920   0.187E-01    0.950E-02
DAV:   7    -0.191787171426E+03    0.49465E-04   -0.39447E-04  8200   0.134E-01
  76 F= -.19178717E+03 E0= -.19169104E+03  d E =-.912579E-02
       N       E                     dE             d eps       ncg     rms          rms(c)
DAV:   1    -0.191783418279E+03    0.38026E-02   -0.11547E-01  8160   0.731E-01    0.782E-02
DAV:   2    -0.191783838257E+03   -0.41998E-03   -0.34537E-03 12960   0.216E-01    0.162E-01
DAV:   3    -0.191783606344E+03    0.23191E-03   -0.91970E-04  9760   0.213E-01    0.874E-02
DAV:   4    -0.191783578820E+03    0.27524E-04   -0.23361E-04  6760   0.107E-01
  77 F= -.19178358E+03 E0= -.19168746E+03  d E =0.359261E-02
       N       E                     dE             d eps       ncg     rms          rms(c)
DAV:   1    -0.191789270801E+03   -0.56645E-02   -0.36665E-01  8160   0.130E+00    0.189E-01
DAV:   2    -0.191792425967E+03   -0.31552E-02   -0.18231E-02 11480   0.774E-01    0.490E-01
DAV:   3    -0.191789606037E+03    0.28199E-02   -0.56329E-03 12000   0.571E-01    0.131E-01
DAV:   4    -0.191789805093E+03   -0.19906E-03   -0.12555E-03  9720   0.263E-01    0.202E-01
DAV:   5    -0.191789393964E+03    0.41113E-03   -0.88026E-04  9280   0.227E-01    0.734E-02
DAV:   6    -0.191789410857E+03   -0.16894E-04   -0.31494E-04  7280   0.108E-01
  78 F= -.19178941E+03 E0= -.19169395E+03  d E =-.583204E-02
       N       E                     dE             d eps       ncg     rms          rms(c)
DAV:   1    -0.191792871840E+03   -0.34779E-02   -0.90634E-02  8160   0.675E-01    0.109E-01
DAV:   2    -0.191793790602E+03   -0.91876E-03   -0.48810E-03 12640   0.353E-01    0.310E-01
DAV:   3    -0.191792893863E+03    0.89674E-03   -0.23586E-03 10280   0.334E-01    0.988E-02
DAV:   4    -0.191792826815E+03    0.67048E-04   -0.28104E-04  7200   0.945E-02
  79 F= -.19179283E+03 E0= -.19169729E+03  d E =-.341596E-02
       N       E                     dE             d eps       ncg     rms          rms(c)
DAV:   1    -0.191789684071E+03    0.32098E-02   -0.13957E-01  8160   0.843E-01    0.144E-01
DAV:   2    -0.191791753343E+03   -0.20693E-02   -0.91186E-03 12240   0.519E-01    0.456E-01
DAV:   3    -0.191789708712E+03    0.20446E-02   -0.41322E-03 11040   0.468E-01    0.986E-02
DAV:   4    -0.191789726728E+03   -0.18016E-04   -0.50280E-04  8320   0.151E-01
  80 F= -.19178973E+03 E0= -.19169459E+03  d E =0.310009E-02
       N       E                     dE             d eps       ncg     rms          rms(c)
DAV:   1    -0.191790175263E+03   -0.46655E-03   -0.58435E-02  8160   0.575E-01    0.196E-01
DAV:   2    -0.191790508190E+03   -0.33293E-03   -0.64605E-03 11440   0.508E-01    0.361E-01
DAV:   3    -0.191789250719E+03    0.12575E-02   -0.35882E-03 10840   0.487E-01    0.184E-01
DAV:   4    -0.191789371095E+03   -0.12038E-03   -0.21632E-03 10000   0.321E-01    0.236E-01
DAV:   5    -0.191788880966E+03    0.49013E-03   -0.17735E-03  9600   0.290E-01    0.105E-01
DAV:   6    -0.191788730430E+03    0.15054E-03   -0.42147E-04  7640   0.114E-01    0.297E-02
DAV:   7    -0.191788735678E+03   -0.52480E-05   -0.77860E-05  6800   0.563E-02
  81 F= -.19178874E+03 E0= -.19169382E+03  d E =0.991050E-03
       N       E                     dE             d eps       ncg     rms          rms(c)
DAV:   1    -0.191798540095E+03   -0.98097E-02   -0.56398E-01  8160   0.165E+00    0.239E-01
DAV:   2    -0.191799408188E+03   -0.86809E-03   -0.18912E-02 11480   0.490E-01    0.347E-01
DAV:   3    -0.191799325753E+03    0.82435E-04   -0.65451E-03 12240   0.572E-01    0.349E-01
DAV:   4    -0.191798055925E+03    0.12698E-02   -0.25923E-03 10880   0.340E-01    0.109E-01
DAV:   5    -0.191798148082E+03   -0.92157E-04   -0.12155E-03 10160   0.242E-01    0.156E-01
DAV:   6    -0.191797889546E+03    0.25854E-03   -0.80454E-04  8920   0.201E-01    0.678E-02
DAV:   7    -0.191797896603E+03   -0.70570E-05   -0.21631E-04  6880   0.112E-01
  82 F= -.19179790E+03 E0= -.19170340E+03  d E =-.916092E-02
       N       E                     dE             d eps       ncg     rms          rms(c)
DAV:   1    -0.191810061044E+03   -0.12171E-01   -0.11505E+00  8160   0.232E+00    0.272E-01
DAV:   2    -0.191813130082E+03   -0.30690E-02   -0.35728E-02 12760   0.620E-01    0.428E-01
DAV:   3    -0.191812584848E+03    0.54523E-03   -0.95713E-03 12360   0.675E-01    0.382E-01
DAV:   4    -0.191811257454E+03    0.13274E-02   -0.26952E-03 11280   0.358E-01    0.154E-01
DAV:   5    -0.191811205456E+03    0.51999E-04   -0.12256E-03 10200   0.288E-01    0.156E-01
DAV:   6    -0.191811068319E+03    0.13714E-03   -0.82064E-04 10320   0.213E-01    0.108E-01
DAV:   7    -0.191811014596E+03    0.53723E-04   -0.49551E-04  8680   0.165E-01
  83 F= -.19181101E+03 E0= -.19171724E+03  d E =-.131180E-01
       N       E                     dE             d eps       ncg     rms          rms(c)
DAV:   1    -0.191790294943E+03    0.20773E-01   -0.25144E+00  8160   0.341E+00    0.390E-01
DAV:   2    -0.191799177682E+03   -0.88827E-02   -0.75647E-02 13080   0.104E+00    0.792E-01
DAV:   3    -0.191794439708E+03    0.47380E-02   -0.23594E-02 12320   0.105E+00    0.449E-01
DAV:   4    -0.191793566528E+03    0.87318E-03   -0.58159E-03 10880   0.529E-01    0.334E-01
DAV:   5    -0.191792297856E+03    0.12687E-02   -0.28566E-03 11080   0.449E-01    0.143E-01
DAV:   6    -0.191792326651E+03   -0.28795E-04   -0.12242E-03 12400   0.204E-01    0.142E-01
DAV:   7    -0.191792239183E+03    0.87468E-04   -0.92272E-04  9680   0.224E-01
  84 F= -.19179224E+03 E0= -.19169729E+03  d E =0.187754E-01
       N       E                     dE             d eps       ncg     rms          rms(c)
DAV:   1    -0.191767606084E+03    0.24721E-01   -0.54717E+00  8160   0.505E+00    0.579E-01
DAV:   2    -0.191785058168E+03   -0.17452E-01   -0.16651E-01 13320   0.145E+00    0.106E+00
DAV:   3    -0.191778287166E+03    0.67710E-02   -0.50508E-02 12400   0.149E+00    0.721E-01
DAV:   4    -0.191775620956E+03    0.26662E-02   -0.14837E-02 12080   0.819E-01    0.483E-01
DAV:   5    -0.191773037105E+03    0.25839E-02   -0.64395E-03 11640   0.664E-01    0.231E-01
DAV:   6    -0.191773139197E+03   -0.10209E-03   -0.29990E-03 12640   0.328E-01    0.217E-01
DAV:   7    -0.191772937389E+03    0.20181E-03   -0.22903E-03 11480   0.345E-01    0.215E-01
DAV:   8    -0.191772455301E+03    0.48209E-03   -0.83501E-04  8720   0.208E-01    0.361E-02
DAV:   9    -0.191772451561E+03    0.37392E-05   -0.75494E-05  6400   0.377E-02
  85 F= -.19177245E+03 E0= -.19167481E+03  d E =0.197876E-01
       N       E                     dE             d eps       ncg     rms          rms(c)
DAV:   1    -0.191787689022E+03   -0.15234E-01   -0.42588E+00  8160   0.448E+00    0.534E-01
DAV:   2    -0.191801013704E+03   -0.13325E-01   -0.13322E-01 13240   0.131E+00    0.978E-01
DAV:   3    -0.191795444883E+03    0.55688E-02   -0.38408E-02 12040   0.137E+00    0.662E-01
DAV:   4    -0.191791034532E+03    0.44104E-02   -0.88191E-03 12280   0.606E-01    0.273E-01
DAV:   5    -0.191791798911E+03   -0.76438E-03   -0.57275E-03 11920   0.587E-01    0.424E-01
DAV:   6    -0.191790477196E+03    0.13217E-02   -0.47921E-03 11520   0.480E-01    0.207E-01
DAV:   7    -0.191790170508E+03    0.30669E-03   -0.18846E-03 10160   0.303E-01    0.139E-01
DAV:   8    -0.191789930529E+03    0.23998E-03   -0.53588E-04  9680   0.171E-01    0.338E-02
DAV:   9    -0.191789916442E+03    0.14087E-04   -0.67707E-05  6720   0.364E-02
  86 F= -.19178992E+03 E0= -.19169382E+03  d E =-.174649E-01
       N       E                     dE             d eps       ncg     rms          rms(c)
DAV:   1    -0.191788031115E+03    0.18994E-02   -0.13853E-01  8160   0.817E-01    0.103E-01
DAV:   2    -0.191788331732E+03   -0.30062E-03   -0.44527E-03 12040   0.241E-01    0.140E-01
DAV:   3    -0.191788285345E+03    0.46387E-04   -0.98361E-04 11080   0.232E-01
  87 F= -.19178829E+03 E0= -.19169168E+03  d E =0.163110E-02
       N       E                     dE             d eps       ncg     rms          rms(c)
DAV:   1    -0.191792722763E+03   -0.43910E-02   -0.35268E-01  8160   0.127E+00    0.160E-01
DAV:   2    -0.191796212108E+03   -0.34893E-02   -0.16609E-02 13080   0.601E-01    0.507E-01
DAV:   3    -0.191793455928E+03    0.27562E-02   -0.65718E-03 11480   0.556E-01    0.148E-01
DAV:   4    -0.191793447423E+03    0.85047E-05   -0.87961E-04  9720   0.212E-01
  88 F= -.19179345E+03 E0= -.19169729E+03  d E =-.516208E-02
       N       E                     dE             d eps       ncg     rms          rms(c)
DAV:   1    -0.191792396058E+03    0.10599E-02   -0.21660E-02  8880   0.394E-01    0.731E-02
DAV:   2    -0.191792946849E+03   -0.55079E-03   -0.19718E-03 11960   0.266E-01    0.237E-01
DAV:   3    -0.191792375086E+03    0.57176E-03   -0.10932E-03  9320   0.248E-01    0.579E-02
DAV:   4    -0.191792390367E+03   -0.15281E-04   -0.17551E-04  6400   0.813E-02
  89 F= -.19179239E+03 E0= -.19169673E+03  d E =0.105706E-02
       N       E                     dE             d eps       ncg     rms          rms(c)
DAV:   1    -0.191797679149E+03   -0.53041E-02   -0.36582E-01  8160   0.130E+00    0.167E-01
DAV:   2    -0.191800472997E+03   -0.27938E-02   -0.14567E-02 12440   0.567E-01    0.484E-01
DAV:   3    -0.191798153615E+03    0.23194E-02   -0.54574E-03 11560   0.523E-01    0.140E-01
DAV:   4    -0.191798212953E+03   -0.59338E-04   -0.85867E-04  9680   0.223E-01
  90 F= -.19179821E+03 E0= -.19170292E+03  d E =-.582259E-02
       N       E                     dE             d eps       ncg     rms          rms(c)
DAV:   1    -0.191796036108E+03    0.21175E-02   -0.53921E-02  8160   0.526E-01    0.784E-02
DAV:   2    -0.191797100152E+03   -0.10640E-02   -0.32374E-03 11920   0.350E-01    0.301E-01
DAV:   3    -0.191796102711E+03    0.99744E-03   -0.14747E-03 10240   0.306E-01    0.539E-02
DAV:   4    -0.191796126076E+03   -0.23365E-04   -0.18431E-04  8160   0.954E-02
  91 F= -.19179613E+03 E0= -.19170095E+03  d E =0.208688E-02
       N       E                     dE             d eps       ncg     rms          rms(c)
DAV:   1    -0.191794493897E+03    0.16088E-02   -0.17014E-01  8160   0.906E-01    0.140E-01
DAV:   2    -0.191795555131E+03   -0.10612E-02   -0.70591E-03 12440   0.471E-01    0.309E-01
DAV:   3    -0.191794419212E+03    0.11359E-02   -0.23595E-03 11360   0.376E-01    0.793E-02
DAV:   4    -0.191794599748E+03   -0.18054E-03   -0.64839E-04  8640   0.185E-01    0.167E-01
DAV:   5    -0.191794322889E+03    0.27686E-03   -0.58506E-04  8200   0.187E-01    0.585E-02
DAV:   6    -0.191794306412E+03    0.16478E-04   -0.14788E-04  5480   0.703E-02
  92 F= -.19179431E+03 E0= -.19169846E+03  d E =0.181966E-02
       N       E                     dE             d eps       ncg     rms          rms(c)
DAV:   1    -0.191792408400E+03    0.19145E-02   -0.40952E-01  8160   0.141E+00    0.201E-01
DAV:   2    -0.191793949464E+03   -0.15411E-02   -0.14901E-02 12320   0.577E-01    0.362E-01
DAV:   3    -0.191792574832E+03    0.13746E-02   -0.39186E-03 12120   0.490E-01    0.146E-01
DAV:   4    -0.191792893405E+03   -0.31857E-03   -0.16942E-03 10760   0.282E-01    0.257E-01
DAV:   5    -0.191792274706E+03    0.61870E-03   -0.15757E-03  9600   0.271E-01    0.830E-02
DAV:   6    -0.191792255226E+03    0.19480E-04   -0.36233E-04  8160   0.975E-02
  93 F= -.19179226E+03 E0= -.19169559E+03  d E =0.205119E-02
       N       E                     dE             d eps       ncg     rms          rms(c)
DAV:   1    -0.191795271832E+03   -0.29971E-02   -0.40011E-01  8160   0.137E+00    0.167E-01
DAV:   2    -0.191796197084E+03   -0.92525E-03   -0.13195E-02 12360   0.345E-01    0.201E-01
DAV:   3    -0.191796240472E+03   -0.43388E-04   -0.28293E-03 11360   0.378E-01    0.245E-01
DAV:   4    -0.191795721022E+03    0.51945E-03   -0.13111E-03 10120   0.264E-01    0.114E-01
DAV:   5    -0.191795618721E+03    0.10230E-03   -0.55429E-04  8800   0.175E-01    0.920E-02
DAV:   6    -0.191795570736E+03    0.47985E-04   -0.34359E-04  8720   0.142E-01
  94 F= -.19179557E+03 E0= -.19169844E+03  d E =-.331551E-02
       N       E                     dE             d eps       ncg     rms          rms(c)
DAV:   1    -0.191798219698E+03   -0.26010E-02   -0.28438E-01  8160   0.115E+00    0.142E-01
DAV:   2    -0.191800209215E+03   -0.19895E-02   -0.11482E-02 12600   0.459E-01    0.398E-01
DAV:   3    -0.191798734923E+03    0.14743E-02   -0.41521E-03 11520   0.436E-01    0.129E-01
DAV:   4    -0.191798705459E+03    0.29465E-04   -0.51455E-04  8560   0.157E-01
  95 F= -.19179871E+03 E0= -.19170153E+03  d E =-.313472E-02
       N       E                     dE             d eps       ncg     rms          rms(c)
DAV:   1    -0.191799929842E+03   -0.11949E-02   -0.13692E-01  8160   0.825E-01    0.111E-01
DAV:   2    -0.191801257582E+03   -0.13277E-02   -0.55707E-03 12960   0.383E-01    0.353E-01
DAV:   3    -0.191800030120E+03    0.12275E-02   -0.24024E-03 10640   0.356E-01    0.766E-02
DAV:   4    -0.191800045929E+03   -0.15809E-04   -0.26153E-04  8120   0.977E-02
  96 F= -.19180005E+03 E0= -.19170355E+03  d E =-.134047E-02
       N       E                     dE             d eps       ncg     rms          rms(c)
DAV:   1    -0.191803377037E+03   -0.33469E-02   -0.26959E-01  8160   0.112E+00    0.159E-01
DAV:   2    -0.191806887990E+03   -0.35110E-02   -0.13301E-02 13040   0.623E-01    0.555E-01
DAV:   3    -0.191803726395E+03    0.31616E-02   -0.57913E-03 11520   0.563E-01    0.110E-01
DAV:   4    -0.191803763878E+03   -0.37483E-04   -0.55378E-04  8800   0.161E-01
  97 F= -.19180376E+03 E0= -.19170721E+03  d E =-.371795E-02
       N       E                     dE             d eps       ncg     rms          rms(c)
DAV:   1    -0.191807261593E+03   -0.35352E-02   -0.17885E-01  8160   0.934E-01    0.148E-01
DAV:   2    -0.191809776718E+03   -0.25151E-02   -0.94693E-03 12600   0.537E-01    0.503E-01
DAV:   3    -0.191807321910E+03    0.24548E-02   -0.51446E-03 11320   0.490E-01    0.104E-01
DAV:   4    -0.191807372781E+03   -0.50871E-04   -0.49185E-04  8440   0.157E-01
  98 F= -.19180737E+03 E0= -.19171126E+03  d E =-.360890E-02
       N       E                     dE             d eps       ncg     rms          rms(c)
DAV:   1    -0.191800470933E+03    0.68510E-02   -0.92471E-01  8160   0.210E+00    0.307E-01
DAV:   2    -0.191808497557E+03   -0.80266E-02   -0.42660E-02 12400   0.112E+00    0.873E-01
DAV:   3    -0.191800921787E+03    0.75758E-02   -0.19952E-02 11920   0.939E-01    0.260E-01
DAV:   4    -0.191801375986E+03   -0.45420E-03   -0.40141E-03 11120   0.484E-01    0.329E-01
DAV:   5    -0.191800157395E+03    0.12186E-02   -0.21840E-03 10320   0.364E-01    0.106E-01
DAV:   6    -0.191800228898E+03   -0.71503E-04   -0.89172E-04 10160   0.181E-01
  99 F= -.19180023E+03 E0= -.19170306E+03  d E =0.714388E-02
       N       E                     dE             d eps       ncg     rms          rms(c)
DAV:   1    -0.191798310369E+03    0.18470E-02   -0.12527E-01  8160   0.796E-01    0.142E-01
DAV:   2    -0.191801177548E+03   -0.28672E-02   -0.88187E-03 12480   0.560E-01    0.528E-01
DAV:   3    -0.191798314197E+03    0.28634E-02   -0.51559E-03 11200   0.523E-01    0.950E-02
DAV:   4    -0.191798358877E+03   -0.44680E-04   -0.43452E-04  8760   0.129E-01
 100 F= -.19179836E+03 E0= -.19170088E+03  d E =0.187002E-02
