unknown system                          
           1
     8.861729    5.106555    0.000000
    -8.860379    5.104234    0.000000
     0.000000    0.000000   30.000000
   V    Mo   W    S 
   3   3   3  18
Direct configuration=     1
   0.33333334  0.33333334  0.00000000
   0.66666669  0.33333334  0.00000000
   0.66666669  0.66666669  0.00000000
   1.00000000  0.33333334  0.00000000
   0.33333334  0.66666669  0.00000000
   0.33333334  0.00000000  0.00000000
   0.00000000  0.00000000  0.00000000
   0.00000000  0.66666669  0.00000000
   0.66666669  0.00000000  0.00000000
   0.11068511  0.22244981  0.95539999
   0.22244981  0.11068511  0.04460000
   0.11068511  0.55578315  0.95539999
   0.22244981  0.44401845  0.04460000
   0.11068511  0.88911647  0.95539999
   0.22244981  0.77735180  0.04460000
   0.44401845  0.22244981  0.95539999
   0.55578315  0.11068511  0.04460000
   0.44401845  0.55578315  0.95539999
   0.55578315  0.44401845  0.04460000
   0.44401845  0.88911647  0.95539999
   0.55578315  0.77735180  0.04460000
   0.77735180  0.22244981  0.95539999
   0.88911647  0.11068511  0.04460000
   0.77735180  0.55578315  0.95539999
   0.88911647  0.44401845  0.04460000
   0.77735180  0.88911647  0.95539999
   0.88911647  0.77735180  0.04460000
unknown system                          
           1
     8.671493    4.999535    0.000000
    -8.670170    4.997259    0.000000
     0.000000    0.000000   30.000000
   V    Mo   W    S 
   3   3   3  18
Direct configuration=     2
   0.33313926  0.33382002 -0.00001240
   0.66615629  0.33264560 -0.00000961
   0.66507466  0.66582975  0.00001936
   1.00143769  0.33470985 -0.00009228
   0.33202621  0.66649108  0.00014671
   0.33338135 -0.00115792  0.00005549
   0.00173764  0.00168672 -0.00015456
   0.00239881  0.66611347  0.00017058
   0.66500552  0.00002875 -0.00017322
   0.11488289  0.22326869  0.95188089
   0.22339324  0.11496775  0.04807462
   0.11047763  0.55572501  0.95069001
   0.22463203  0.44206341  0.04798982
   0.11004617  0.88841627  0.95076922
   0.22110109  0.77716450  0.04937098
   0.44634427  0.22658418  0.95316489
   0.55802466  0.11504477  0.04810932
   0.44651026  0.55321503  0.95308015
   0.55559549  0.44420994  0.04584871
   0.44552686  0.88932000  0.95078021
   0.55822029  0.77612855  0.04797441
   0.77483537  0.22348260  0.95199787
   0.88830263  0.11021232  0.04917115
   0.77409936  0.55390710  0.95318279
   0.88476706  0.44324166  0.04803475
   0.77598789  0.88522425  0.95191519
   0.88510981  0.77587111  0.04801484
unknown system                          
           1
     8.487607    4.899993    0.000000
    -8.486322    4.897779    0.000000
     0.000000    0.000000   30.000000
   V    Mo   W    S 
   3   3   3  18
Direct configuration=     3
   0.33289718  0.33383273 -0.00002190
   0.66603822  0.33234237 -0.00006330
   0.66472226  0.66575213  0.00001249
   1.00190364  0.33514299 -0.00005688
   0.33124169  0.66671863  0.00017025
   0.33314141 -0.00206505  0.00002521
   0.00216590  0.00222028 -0.00011589
   0.00361475  0.66620588  0.00019568
   0.66455477  0.00002577 -0.00019023
   0.11490517  0.22313490  0.95182867
   0.22325499  0.11496537  0.04804942
   0.11034689  0.55584628  0.95057048
   0.22471686  0.44202312  0.04803575
   0.10977965  0.88829028  0.95077985
   0.22086950  0.77701879  0.04954556
   0.44642193  0.22667692  0.95325740
   0.55819222  0.11502365  0.04812765
   0.44652814  0.55315479  0.95314000
   0.55555442  0.44420473  0.04576899
   0.44575892  0.88942846  0.95070300
   0.55834173  0.77631525  0.04795584
   0.77467904  0.22328973  0.95200280
   0.88819242  0.10996167  0.04908177
   0.77426909  0.55395189  0.95332622
   0.88478672  0.44342244  0.04801390
   0.77604096  0.88540748  0.95199177
   0.88529600  0.77592295  0.04786542
unknown system                          
           1
     8.285833    4.781271    0.000000
    -8.280876    4.772697    0.000000
     0.000000    0.000000   30.000000
   V    Mo   W    S 
   3   3   3  18
Direct configuration=     4
   0.33124174  0.33339992 -0.00006643
   0.66591524  0.33093418 -0.00026539
   0.66388693  0.66617581 -0.00003490
   1.00352975  0.33655448  0.00008195
   0.32787254  0.66820389  0.00018561
   0.33182475 -0.00639863 -0.00008080
   0.00336486  0.00407804  0.00008522
   0.00877401  0.66706514  0.00019563
   0.66315351 -0.00004974 -0.00015926
   0.11627000  0.22398109  0.95010407
   0.22414929  0.11617019  0.04941766
   0.11033523  0.55588061  0.94845553
   0.22556986  0.44159735  0.04966142
   0.10942502  0.88803474  0.94919308
   0.22091865  0.77695115  0.05196075
   0.44698331  0.22767123  0.95231254
   0.55868519  0.11610826  0.04968141
   0.44684353  0.55263542  0.95206761
   0.55538274  0.44413728  0.04671106
   0.44572446  0.88923409  0.94875885
   0.55865853  0.77584255  0.04932824
   0.77425377  0.22383886  0.95055691
   0.88800629  0.10975319  0.05033797
   0.77363450  0.55351459  0.95257489
   0.88365576  0.44292948  0.04941415
   0.77555379  0.88463759  0.95079110
   0.88460123  0.77533369  0.04873102
unknown system                          
           1
     8.295738    4.783666    0.000000
    -8.289589    4.773031    0.000000
     0.000000    0.000000   30.000000
   V    Mo   W    S 
   3   3   3  18
Direct configuration=     5
   0.32780101  0.33249954 -0.00015907
   0.66575724  0.32846250 -0.00054384
   0.66236197  0.66714702 -0.00016148
   1.00658787  0.33877641  0.00027464
   0.32171700  0.67177497  0.00007792
   0.32922484 -0.01548018 -0.00015343
   0.00512874  0.00786935  0.00039042
   0.01851069  0.66882609  0.00010678
   0.66054819 -0.00053282  0.00000547
   0.11796066  0.22535312  0.94774112
   0.22598569  0.11743315  0.05106302
   0.11067609  0.55557313  0.94550570
   0.22683210  0.44202728  0.05183327
   0.10928086  0.88756668  0.94722405
   0.22146233  0.77712560  0.05574750
   0.44682096  0.22744235  0.95113639
   0.55836841  0.11693268  0.05164920
   0.44630873  0.55243568  0.95065991
   0.55495260  0.44385680  0.04815964
   0.44517953  0.88836757  0.94607422
   0.55786601  0.77507880  0.05105322
   0.77432309  0.22450865  0.94868162
   0.88772151  0.11021096  0.05186776
   0.77411439  0.55343141  0.95177964
   0.88302995  0.44284910  0.05115728
   0.77519057  0.88413103  0.94922537
   0.88450346  0.77454757  0.04960358
unknown system                          
           1
     8.284488    4.776107    0.000000
    -8.279419    4.767347    0.000000
     0.000000    0.000000   30.000000
   V    Mo   W    S 
   3   3   3  18
Direct configuration=     6
   0.32699752  0.33263030 -0.00011019
   0.66562035  0.32805717 -0.00056835
   0.66149551  0.66701912 -0.00016353
   1.00728293  0.33864308  0.00024397
   0.32180038  0.67227484  0.00006077
   0.32933470 -0.01657893 -0.00004458
   0.00514519  0.00927850  0.00040660
   0.01940154  0.66883493  0.00015553
   0.65981957 -0.00101446 -0.00002271
   0.11787775  0.22550096  0.94754513
   0.22646133  0.11707201  0.05094787
   0.11080016  0.55528154  0.94519181
   0.22716266  0.44304975  0.05187922
   0.10934479  0.88738975  0.94724799
   0.22160256  0.77719789  0.05625183
   0.44590042  0.22591841  0.95127688
   0.55773247  0.11642794  0.05169660
   0.44544790  0.55290817  0.95066470
   0.55477099  0.44370831  0.04815380
   0.44490297  0.88789341  0.94585321
   0.55686839  0.77495426  0.05104394
   0.77465498  0.22428243  0.94870174
   0.88759616  0.11070968  0.05190998
   0.77554721  0.55406312  0.95201677
   0.88378466  0.44343687  0.05111714
   0.77545182  0.88473959  0.94924463
   0.88540955  0.77453581  0.04929917
unknown system                          
           1
     8.294078    4.780638    0.000000
    -8.288824    4.771561    0.000000
     0.000000    0.000000   30.000000
   V    Mo   W    S 
   3   3   3  18
Direct configuration=     7
   0.32572649  0.33290670 -0.00005934
   0.66535384  0.32738839 -0.00066838
   0.65997191  0.66662617 -0.00017366
   1.00858119  0.33869814  0.00018620
   0.32105591  0.67329667  0.00003175
   0.32951187 -0.01884557 -0.00000212
   0.00527945  0.01171541  0.00046418
   0.02185492  0.66873923  0.00015828
   0.65845561 -0.00173660 -0.00008557
   0.11801969  0.22581822  0.94714016
   0.22696705  0.11689175  0.05087063
   0.11094287  0.55504486  0.94482879
   0.22754700  0.44388657  0.05207883
   0.10941399  0.88734454  0.94731285
   0.22175726  0.77710238  0.05688672
   0.44503661  0.22456144  0.95145424
   0.55729032  0.11604258  0.05188443
   0.44472818  0.55324033  0.95054892
   0.55457004  0.44358121  0.04817122
   0.44470453  0.88751066  0.94548077
   0.55610388  0.77486185  0.05118854
   0.77493885  0.22407432  0.94867402
   0.88735218  0.11116883  0.05205131
   0.77675100  0.55461370  0.95228668
   0.88441435  0.44374416  0.05116462
   0.77565814  0.88528052  0.94919784
   0.88622734  0.77465798  0.04892796
unknown system                          
           1
     8.299081    4.781468    0.000000
    -8.293892    4.772508    0.000000
     0.000000    0.000000   30.000000
   V    Mo   W    S 
   3   3   3  18
Direct configuration=     8
   0.32563720  0.33305799 -0.00004961
   0.66527560  0.32737120 -0.00068361
   0.65960238  0.66638621 -0.00016849
   1.00872883  0.33856927  0.00019205
   0.32133271  0.67325338  0.00003171
   0.32985671 -0.01869167  0.00002034
   0.00517735  0.01216925  0.00047692
   0.02169880  0.66847599  0.00018813
   0.65828173 -0.00188724 -0.00009453
   0.11803559  0.22583509  0.94714075
   0.22695254  0.11686191  0.05077662
   0.11097853  0.55500245  0.94486555
   0.22755980  0.44394177  0.05204048
   0.10941067  0.88737617  0.94743379
   0.22176778  0.77708307  0.05682534
   0.44495350  0.22447073  0.95154145
   0.55729872  0.11600217  0.05184398
   0.44471719  0.55323931  0.95056158
   0.55455247  0.44358577  0.04811088
   0.44473361  0.88748287  0.94550201
   0.55612040  0.77491125  0.05116108
   0.77494675  0.22401748  0.94874602
   0.88728058  0.11121726  0.05201559
   0.77682250  0.55467092  0.95237092
   0.88448868  0.44373710  0.05110179
   0.77568528  0.88531755  0.94925246
   0.88631856  0.77475722  0.04879668
unknown system                          
           1
     8.286493    4.779297    0.000000
    -8.280509    4.768947    0.000000
     0.000000    0.000000   30.000000
   V    Mo   W    S 
   3   3   3  18
Direct configuration=     9
   0.32487575  0.33345533 -0.00001555
   0.66498626  0.32703123 -0.00076765
   0.65816484  0.66572208 -0.00016411
   1.00966922  0.33843029  0.00017250
   0.32137220  0.67371513  0.00001225
   0.33060460 -0.01959000  0.00005948
   0.00503235  0.01419735  0.00051850
   0.02267778  0.66789188  0.00022848
   0.65731263 -0.00251452 -0.00014829
   0.11818805  0.22605183  0.94691579
   0.22716677  0.11680154  0.05060662
   0.11111903  0.55484685  0.94473199
   0.22776867  0.44434052  0.05211840
   0.10942308  0.88741236  0.94767479
   0.22188283  0.77700829  0.05704415
   0.44448755  0.22384702  0.95174056
   0.55717793  0.11582843  0.05190358
   0.44444786  0.55332745  0.95048064
   0.55441487  0.44352949  0.04805097
   0.44470257  0.88726606  0.94532918
   0.55588705  0.77495511  0.05122460
   0.77506563  0.22385401  0.94883181
   0.88701693  0.11149846  0.05206716
   0.77737536  0.55497630  0.95260853
   0.88482020  0.44379263  0.05106165
   0.77578785  0.88555182  0.94930128
   0.88678658  0.77498750  0.04841260
unknown system                          
           1
     8.284100    4.780348    0.000000
    -8.277646    4.769177    0.000000
     0.000000    0.000000   30.000000
   V    Mo   W    S 
   3   3   3  18
Direct configuration=    10
   0.32633095  0.33253797 -0.00008275
   0.66567015  0.32767453 -0.00057887
   0.66146710  0.66744574 -0.00019037
   1.00769103  0.33866716  0.00019631
   0.32091945  0.67288589  0.00005449
   0.32848863 -0.01825137 -0.00003106
   0.00559081  0.00993663  0.00044595
   0.02111928  0.66946481  0.00010545
   0.65936631 -0.00113653 -0.00002058
   0.11783621  0.22555577  0.94737478
   0.22686819  0.11691210  0.05100357
   0.11079013  0.55514338  0.94496418
   0.22739366  0.44367875  0.05194430
   0.10942045  0.88729409  0.94705362
   0.22162860  0.77714925  0.05673418
   0.44529239  0.22480399  0.95136605
   0.55726194  0.11610338  0.05178043
   0.44477507  0.55326013  0.95072349
   0.55470990  0.44363003  0.04814469
   0.44469340  0.88769610  0.94567453
   0.55611147  0.77479973  0.05106507
   0.77485535  0.22414916  0.94861132
   0.88760516  0.11090624  0.05193651
   0.77651803  0.55443211  0.95214965
   0.88428819  0.44383585  0.05113114
   0.77560809  0.88521598  0.94918390
   0.88591451  0.77442357  0.04925994
unknown system                          
           1
     8.278605    4.778016    0.000000
    -8.272170    4.766878    0.000000
     0.000000    0.000000   30.000000
   V    Mo   W    S 
   3   3   3  18
Direct configuration=    11
   0.32698159  0.33185046 -0.00012655
   0.66625374  0.32788420 -0.00046397
   0.66390424  0.66899612 -0.00023076
   1.00643923  0.33884540  0.00020289
   0.32017233  0.67250349  0.00007994
   0.32635022 -0.01809794 -0.00003722
   0.00640171  0.00696989  0.00042461
   0.02081629  0.67113023  0.00005660
   0.66055969 -0.00016503  0.00007853
   0.11758725  0.22516799  0.94761379
   0.22681905  0.11688984  0.05130598
   0.11053793  0.55518780  0.94498147
   0.22720302  0.44351028  0.05183496
   0.10940335  0.88718877  0.94647885
   0.22137006  0.77718647  0.05676184
   0.44551625  0.22485966  0.95121960
   0.55701490  0.11607526  0.05170129
   0.44469240  0.55344144  0.95098348
   0.55493012  0.44373948  0.04814149
   0.44458250  0.88788563  0.94584233
   0.55591997  0.77462190  0.05092799
   0.77478096  0.22424821  0.94842027
   0.88801042  0.11055527  0.05182817
   0.77645449  0.55428710  0.95195497
   0.88423049  0.44410303  0.05113022
   0.77567739  0.88529688  0.94910510
   0.88560483  0.77405264  0.04978402
unknown system                          
           1
     8.284968    4.780808    0.000000
    -8.278552    4.769704    0.000000
     0.000000    0.000000   30.000000
   V    Mo   W    S 
   3   3   3  18
Direct configuration=    12
   0.32662083  0.33175813 -0.00014444
   0.66639591  0.32747737 -0.00050344
   0.66403495  0.66939172 -0.00027728
   1.00660601  0.33922659  0.00017456
   0.31960146  0.67262767  0.00007132
   0.32551615 -0.01884562  0.00000321
   0.00715097  0.00648347  0.00041217
   0.02169927  0.67193198  0.00002254
   0.66014585 -0.00007241  0.00009812
   0.11750759  0.22499222  0.94763167
   0.22689396  0.11672661  0.05133333
   0.11041978  0.55510864  0.94492428
   0.22719101  0.44372388  0.05180392
   0.10942638  0.88717613  0.94634073
   0.22130222  0.77712824  0.05698402
   0.44518445  0.22425798  0.95138719
   0.55667686  0.11579765  0.05166614
   0.44444586  0.55370022  0.95113540
   0.55500690  0.44382851  0.04801870
   0.44441496  0.88782358  0.94586047
   0.55566678  0.77462798  0.05085204
   0.77481216  0.22409149  0.94841018
   0.88807735  0.11050108  0.05170977
   0.77695003  0.55451795  0.95213031
   0.88452908  0.44437781  0.05105200
   0.77600413  0.88573711  0.94916367
   0.88593356  0.77411848  0.04973932
unknown system                          
           1
     8.288268    4.782375    0.000000
    -8.281687    4.770986    0.000000
     0.000000    0.000000   30.000000
   V    Mo   W    S 
   3   3   3  18
Direct configuration=    13
   0.32601968  0.33206189 -0.00011928
   0.66626446  0.32712717 -0.00056283
   0.66299753  0.66902381 -0.00028241
   1.00730284  0.33934093  0.00017188
   0.31967171  0.67280583  0.00008467
   0.32598634 -0.01933891  0.00006079
   0.00730383  0.00759802  0.00044351
   0.02228598  0.67160746  0.00006921
   0.65928412 -0.00055570  0.00007309
   0.11761409  0.22513035  0.94747358
   0.22704788  0.11672427  0.05125501
   0.11048715  0.55500730  0.94480881
   0.22729124  0.44393710  0.05187650
   0.10945781  0.88721482  0.94644559
   0.22137633  0.77705306  0.05713498
   0.44486024  0.22388229  0.95151435
   0.55658985  0.11569650  0.05174123
   0.44429783  0.55375168  0.95105238
   0.55494029  0.44382683  0.04797097
   0.44436348  0.88767392  0.94572202
   0.55557280  0.77467833  0.05091472
   0.77491407  0.22396694  0.94844333
   0.88791545  0.11063698  0.05168623
   0.77729479  0.55473246  0.95229351
   0.88473610  0.44442345  0.05102795
   0.77612010  0.88594737  0.94920268
   0.88621844  0.77426032  0.04949745
unknown system                          
           1
     8.286926    4.781945    0.000000
    -8.280343    4.770552    0.000000
     0.000000    0.000000   30.000000
   V    Mo   W    S 
   3   3   3  18
Direct configuration=    14
   0.32559187  0.33231422 -0.00010497
   0.66620688  0.32677204 -0.00061439
   0.66223960  0.66879263 -0.00029853
   1.00780174  0.33950500  0.00015218
   0.31967596  0.67294127  0.00008526
   0.32617767 -0.01976463  0.00009197
   0.00766353  0.00833017  0.00045844
   0.02282472  0.67149047  0.00007831
   0.65846613 -0.00089376  0.00004822
   0.11767555  0.22520313  0.94737750
   0.22719160  0.11673644  0.05120696
   0.11053088  0.55496127  0.94474760
   0.22734885  0.44409923  0.05193214
   0.10949957  0.88722445  0.94651780
   0.22141808  0.77697320  0.05725454
   0.44463644  0.22358173  0.95164708
   0.55652128  0.11563214  0.05178337
   0.44415846  0.55380006  0.95100385
   0.55491662  0.44382728  0.04790509
   0.44428220  0.88755956  0.94564570
   0.55548369  0.77472522  0.05095653
   0.77497684  0.22385331  0.94848324
   0.88779027  0.11069197  0.05162196
   0.77758043  0.55487313  0.95245431
   0.88489080  0.44446796  0.05098877
   0.77622338  0.88616163  0.94926092
   0.88644140  0.77435533  0.04931602
unknown system                          
           1
     8.282246    4.779119    0.000000
    -8.275995    4.768301    0.000000
     0.000000    0.000000   30.000000
   V    Mo   W    S 
   3   3   3  18
Direct configuration=    15
   0.32597634  0.33203856 -0.00011766
   0.66624752  0.32705004 -0.00057651
   0.66294940  0.66896300 -0.00028339
   1.00727665  0.33931173  0.00015768
   0.31957229  0.67287757  0.00006991
   0.32601700 -0.01947992  0.00005223
   0.00718704  0.00770304  0.00043401
   0.02242461  0.67160099  0.00005406
   0.65931412 -0.00046588  0.00006280
   0.11759179  0.22511949  0.94744910
   0.22703774  0.11667316  0.05124115
   0.11047055  0.55499072  0.94479849
   0.22731652  0.44399521  0.05189353
   0.10946163  0.88721907  0.94647694
   0.22138096  0.77704483  0.05718403
   0.44483118  0.22377747  0.95154419
   0.55658090  0.11570140  0.05173782
   0.44427343  0.55379937  0.95105373
   0.55495687  0.44381863  0.04795945
   0.44436601  0.88766033  0.94571217
   0.55554123  0.77467117  0.05091978
   0.77491591  0.22397566  0.94845418
   0.88793063  0.11068918  0.05171153
   0.77736616  0.55474208  0.95232779
   0.88475253  0.44443869  0.05101837
   0.77617516  0.88599771  0.94919375
   0.88630027  0.77430116  0.04947075
unknown system                          
           1
     8.287638    4.781657    0.000000
    -8.281180    4.770482    0.000000
     0.000000    0.000000   30.000000
   V    Mo   W    S 
   3   3   3  18
Direct configuration=    16
   0.32583943  0.33211956 -0.00010427
   0.66611953  0.32713392 -0.00056426
   0.66281420  0.66900208 -0.00027348
   1.00748000  0.33917115  0.00016829
   0.31946577  0.67298304  0.00008862
   0.32604880 -0.01984215  0.00008527
   0.00686972  0.00804339  0.00045302
   0.02273367  0.67160100  0.00008300
   0.65940201 -0.00069832  0.00007254
   0.11760253  0.22514538  0.94741909
   0.22700347  0.11660097  0.05116265
   0.11045243  0.55493811  0.94476776
   0.22735423  0.44406923  0.05186761
   0.10946571  0.88723174  0.94653584
   0.22137683  0.77703144  0.05720942
   0.44463880  0.22356980  0.95157893
   0.55653327  0.11561849  0.05174049
   0.44428191  0.55386263  0.95109863
   0.55494212  0.44387436  0.04792728
   0.44441371  0.88762723  0.94569434
   0.55554194  0.77467074  0.05086504
   0.77498830  0.22395559  0.94844163
   0.88792031  0.11077217  0.05172967
   0.77750798  0.55489644  0.95237827
   0.88486358  0.44449762  0.05099764
   0.77618196  0.88599792  0.94920201
   0.88637225  0.77434093  0.04937488
unknown system                          
           1
     8.276190    4.775853    0.000000
    -8.270897    4.766695    0.000000
     0.000000    0.000000   30.000000
   V    Mo   W    S 
   3   3   3  18
Direct configuration=    17
   0.32539654  0.33246197 -0.00009256
   0.66609096  0.32671508 -0.00062876
   0.66185002  0.66865845 -0.00029565
   1.00808227  0.33944485  0.00014794
   0.31967151  0.67305568  0.00008864
   0.32636720 -0.02005876  0.00011230
   0.00753569  0.00886971  0.00047153
   0.02312527  0.67135902  0.00009431
   0.65824638 -0.00113813  0.00003750
   0.11771236  0.22525977  0.94732324
   0.22721816  0.11670893  0.05113832
   0.11055147  0.55492244  0.94471816
   0.22739757  0.44418880  0.05194294
   0.10951375  0.88723663  0.94660221
   0.22144077  0.77694282  0.05729784
   0.44448026  0.22340206  0.95170814
   0.55650204  0.11558545  0.05179805
   0.44413103  0.55383234  0.95099792
   0.55489176  0.44384626  0.04787284
   0.44429259  0.88750199  0.94560981
   0.55546823  0.77474113  0.05095055
   0.77502870  0.22381324  0.94850129
   0.88772738  0.11077156  0.05162694
   0.77772411  0.55498661  0.95253258
   0.88498145  0.44448721  0.05096835
   0.77624054  0.88620301  0.94928241
   0.88654644  0.77441633  0.04919306
unknown system                          
           1
     8.287967    4.781683    0.000000
    -8.281579    4.770629    0.000000
     0.000000    0.000000   30.000000
   V    Mo   W    S 
   3   3   3  18
Direct configuration=    18
   0.32709249  0.33135388 -0.00014534
   0.66601602  0.32805619 -0.00044085
   0.66546944  0.67007070 -0.00024293
   1.00565713  0.33809255  0.00012594
   0.31881310  0.67305424 -0.00000329
   0.32545559 -0.01967302 -0.00000818
   0.00435264  0.00609589  0.00036596
   0.02197909  0.67223815 -0.00001254
   0.66280506  0.00066952  0.00010855
   0.11730032  0.22486468  0.94754337
   0.22649881  0.11617890  0.05121845
   0.11017996  0.55488369  0.94481978
   0.22736916  0.44397643  0.05176918
   0.10940483  0.88724772  0.94637849
   0.22127077  0.77723726  0.05724619
   0.44484238  0.22353428  0.95131313
   0.55655119  0.11566359  0.05160972
   0.44464199  0.55420036  0.95138059
   0.55516627  0.44406291  0.04806428
   0.44471602  0.88783337  0.94588719
   0.55556702  0.77432138  0.05067927
   0.77486635  0.22432265  0.94829087
   0.88840344  0.11098428  0.05218611
   0.77716956  0.55481476  0.95207251
   0.88459166  0.44456977  0.05109045
   0.77605209  0.88544739  0.94887725
   0.88598206  0.77411293  0.04982575
unknown system                          
           1
     8.287054    4.780406    0.000000
    -8.280373    4.768847    0.000000
     0.000000    0.000000   30.000000
   V    Mo   W    S 
   3   3   3  18
Direct configuration=    19
   0.32649589  0.33146126 -0.00010337
   0.66579977  0.32758995 -0.00046715
   0.66493797  0.66983505 -0.00022538
   1.00604751  0.33776185  0.00016094
   0.31849738  0.67305394  0.00007069
   0.32578556 -0.02019431  0.00007652
   0.00413659  0.00732946  0.00040570
   0.02264352  0.67205943  0.00005942
   0.66288242  0.00081404  0.00012909
   0.11742104  0.22493971  0.94746539
   0.22650800  0.11617805  0.05106982
   0.11019123  0.55481225  0.94475864
   0.22738859  0.44408798  0.05172561
   0.10944613  0.88733179  0.94649769
   0.22127887  0.77710074  0.05728950
   0.44460190  0.22321947  0.95146012
   0.55659144  0.11557262  0.05158403
   0.44441735  0.55422566  0.95134198
   0.55512269  0.44402450  0.04799510
   0.44478281  0.88775141  0.94582885
   0.55545433  0.77445287  0.05067610
   0.77482053  0.22419973  0.94831607
   0.88831910  0.11115187  0.05221370
   0.77749530  0.55490675  0.95219850
   0.88473645  0.44459644  0.05099424
   0.77611666  0.88565557  0.94881510
   0.88629546  0.77429637  0.04966299
unknown system                          
           1
     8.288422    4.780766    0.000000
    -8.281573    4.768916    0.000000
     0.000000    0.000000   30.000000
   V    Mo   W    S 
   3   3   3  18
Direct configuration=    20
   0.32625069  0.33160431 -0.00009514
   0.66557416  0.32737397 -0.00049942
   0.66468892  0.66969040 -0.00022504
   1.00616917  0.33736536  0.00012761
   0.31828967  0.67309471  0.00002713
   0.32609306 -0.02056636  0.00004850
   0.00364783  0.00808845  0.00039339
   0.02300147  0.67191261  0.00003620
   0.66318390  0.00093460  0.00008588
   0.11746570  0.22499580  0.94741661
   0.22646829  0.11613907  0.05096607
   0.11019009  0.55476611  0.94477976
   0.22741092  0.44413863  0.05172515
   0.10947509  0.88738285  0.94666021
   0.22129190  0.77704625  0.05736007
   0.44445486  0.22302947  0.95156127
   0.55662726  0.11552179  0.05158367
   0.44433608  0.55425889  0.95136073
   0.55509727  0.44401117  0.04794120
   0.44483568  0.88768498  0.94587503
   0.55542425  0.77452592  0.05064333
   0.77482619  0.22415915  0.94834349
   0.88827684  0.11127515  0.05229883
   0.77767421  0.55497903  0.95229533
   0.88481845  0.44459991  0.05094203
   0.77615902  0.88575262  0.94881163
   0.88648347  0.77444961  0.04953637
unknown system                          
           1
     8.288416    4.781448    0.000000
    -8.280769    4.768212    0.000000
     0.000000    0.000000   30.000000
   V    Mo   W    S 
   3   3   3  18
Direct configuration=    21
   0.32595472  0.33183427 -0.00008742
   0.66548619  0.32713889 -0.00054006
   0.66408281  0.66943238 -0.00023391
   1.00654787  0.33739642  0.00010943
   0.31836779  0.67312222  0.00001190
   0.32635990 -0.02074328  0.00004715
   0.00387015  0.00874612  0.00039954
   0.02325961  0.67171741  0.00003471
   0.66265862  0.00069616  0.00005196
   0.11754224  0.22508093  0.94736164
   0.22656143  0.11619962  0.05091950
   0.11024423  0.55474981  0.94477331
   0.22743508  0.44418933  0.05175978
   0.10950054  0.88739815  0.94675562
   0.22132704  0.77699326  0.05740515
   0.44434707  0.22294187  0.95165049
   0.55663144  0.11549659  0.05161588
   0.44425186  0.55422232  0.95131624
   0.55504804  0.44398293  0.04789736
   0.44479498  0.88760897  0.94585433
   0.55540478  0.77459474  0.05067152
   0.77485960  0.22408322  0.94838394
   0.88816396  0.11129738  0.05226460
   0.77780789  0.55503810  0.95239561
   0.88489797  0.44458400  0.05091333
   0.77619370  0.88587233  0.94886954
   0.88661495  0.77454033  0.04939876
unknown system                          
           1
     8.294081    4.783891    0.000000
    -8.286603    4.770951    0.000000
     0.000000    0.000000   30.000000
   V    Mo   W    S 
   3   3   3  18
Direct configuration=    22
   0.32670906  0.33128003 -0.00011143
   0.66541881  0.32764948 -0.00045319
   0.66573036  0.67001596 -0.00021143
   1.00543707  0.33675367  0.00010245
   0.31789633  0.67286524 -0.00001829
   0.32587507 -0.02041103 -0.00001280
   0.00255958  0.00756306  0.00033586
   0.02261285  0.67206935 -0.00001906
   0.66491155  0.00167030  0.00008277
   0.11740848  0.22491973  0.94751281
   0.22623160  0.11607040  0.05094031
   0.11004164  0.55471113  0.94483237
   0.22739882  0.44404034  0.05162736
   0.10941352  0.88741883  0.94664218
   0.22120497  0.77706251  0.05739746
   0.44457052  0.22308229  0.95153017
   0.55673274  0.11558407  0.05151366
   0.44443419  0.55435427  0.95153670
   0.55517643  0.44405909  0.04791794
   0.44503651  0.88777151  0.94600102
   0.55546078  0.77444901  0.05051218
   0.77473484  0.22429519  0.94830956
   0.88849764  0.11141299  0.05249327
   0.77756576  0.55490821  0.95222441
   0.88470184  0.44461026  0.05092882
   0.77608949  0.88558901  0.94869892
   0.88636400  0.77441956  0.04968589
unknown system                          
           1
     8.294526    4.783907    0.000000
    -8.286942    4.770782    0.000000
     0.000000    0.000000   30.000000
   V    Mo   W    S 
   3   3   3  18
Direct configuration=    23
   0.32637571  0.33147549 -0.00005568
   0.66504567  0.32729455 -0.00043586
   0.66547415  0.66983802 -0.00016247
   1.00544260  0.33590931  0.00012690
   0.31744411  0.67292190  0.00005627
   0.32631741 -0.02102837  0.00009410
   0.00157820  0.00872747  0.00038074
   0.02329610  0.67194744  0.00008426
   0.66577017  0.00207524  0.00011010
   0.11750748  0.22505614  0.94735778
   0.22613310  0.11597019  0.05078246
   0.10996585  0.55453961  0.94477113
   0.22739188  0.44409266  0.05162648
   0.10939657  0.88756656  0.94682316
   0.22121421  0.77697951  0.05735814
   0.44436300  0.22283333  0.95158978
   0.55680171  0.11548379  0.05148692
   0.44435690  0.55441664  0.95150369
   0.55514836  0.44404313  0.04788341
   0.44518421  0.88767712  0.94600558
   0.55543204  0.77455406  0.05043267
   0.77477107  0.22431716  0.94826908
   0.88846243  0.11161829  0.05266314
   0.77777067  0.55498610  0.95229072
   0.88479782  0.44457350  0.05084141
   0.77613537  0.88566747  0.94861242
   0.88663764  0.77467813  0.04950357
unknown system                          
           1
     8.292094    4.781718    0.000000
    -8.284830    4.769149    0.000000
     0.000000    0.000000   30.000000
   V    Mo   W    S 
   3   3   3  18
Direct configuration=    24
   0.32636000  0.33150880 -0.00005400
   0.66496394  0.32726280 -0.00043977
   0.66547720  0.66980881 -0.00016004
   1.00539708  0.33572343  0.00011761
   0.31736799  0.67290452  0.00004213
   0.32641376 -0.02109556  0.00008460
   0.00133834  0.00890191  0.00037285
   0.02334930  0.67190963  0.00007217
   0.66601999  0.00218998  0.00010184
   0.11751288  0.22506832  0.94734432
   0.22610036  0.11594625  0.05075475
   0.10994888  0.55451538  0.94477856
   0.22738918  0.44409495  0.05162646
   0.10939617  0.88758850  0.94686793
   0.22122069  0.77697430  0.05737746
   0.44433746  0.22279617  0.95160226
   0.55681985  0.11547266  0.05148645
   0.44435578  0.55443125  0.95151176
   0.55514656  0.44404406  0.04787855
   0.44521633  0.88766205  0.94602350