<?xml version="1.0" encoding="ISO-8859-1"?>
<modeling>
 <generator>
  <i name="program" type="string">vasp </i>
  <i name="version" type="string">5.4.1  </i>
  <i name="subversion" type="string">05Feb16 (build Jul 05 2020 17:13:04) complex                          parallel </i>
  <i name="platform" type="string">IFC91_ompi </i>
  <i name="date" type="string">2024 07 17 </i>
  <i name="time" type="string">22:26:19 </i>
 </generator>
 <incar>
  <i type="int" name="ISTART">     0</i>
  <i type="string" name="PREC">normal</i>
  <i type="string" name="ALGO"> Normal</i>
  <i type="int" name="ISPIN">     1</i>
  <i type="int" name="ICHARG">     2</i>
  <i type="int" name="IBRION">     1</i>
  <i type="int" name="NSW">   100</i>
  <i type="int" name="ISIF">     3</i>
  <i type="int" name="ISYM">     0</i>
  <i name="SYMPREC">      0.00000001</i>
  <i name="POTIM">      0.50000000</i>
  <i type="logical" name="LREAL"> F  </i>
  <i type="logical" name="LPLANE"> F  </i>
  <i type="int" name="ISMEAR">     0</i>
  <i type="logical" name="LWAVE"> F  </i>
  <i type="logical" name="LCHARG"> F  </i>
  <v type="int" name="KPOINT_BSE">    -1     0     0     0</v>
 </incar>
 <kpoints>
  <generation param="Gamma">
   <v type="int" name="divisions">       8        8        1 </v>
   <v name="usershift">      0.00000000       0.00000000       0.00000000 </v>
   <v name="genvec1">      0.12500000       0.00000000       0.00000000 </v>
   <v name="genvec2">     -0.00000000       0.12500000       0.00000000 </v>
   <v name="genvec3">      0.00000000       0.00000000       1.00000000 </v>
   <v name="shift">      0.00000000       0.00000000       0.00000000 </v>
  </generation>
  <varray name="kpointlist" >
   <v>       0.00000000       0.00000000       0.00000000 </v>
   <v>       0.12500000       0.00000000       0.00000000 </v>
   <v>       0.25000000       0.00000000       0.00000000 </v>
   <v>       0.37500000       0.00000000       0.00000000 </v>
   <v>       0.50000000       0.00000000       0.00000000 </v>
   <v>       0.00000000       0.12500000       0.00000000 </v>
   <v>       0.12500000       0.12500000       0.00000000 </v>
   <v>       0.25000000       0.12500000       0.00000000 </v>
   <v>       0.37500000       0.12500000       0.00000000 </v>
   <v>       0.50000000       0.12500000       0.00000000 </v>
   <v>      -0.37500000       0.12500000       0.00000000 </v>
   <v>      -0.25000000       0.12500000       0.00000000 </v>
   <v>      -0.12500000       0.12500000       0.00000000 </v>
   <v>       0.00000000       0.25000000       0.00000000 </v>
   <v>       0.12500000       0.25000000       0.00000000 </v>
   <v>       0.25000000       0.25000000       0.00000000 </v>
   <v>       0.37500000       0.25000000       0.00000000 </v>
   <v>       0.50000000       0.25000000       0.00000000 </v>
   <v>      -0.37500000       0.25000000       0.00000000 </v>
   <v>      -0.25000000       0.25000000       0.00000000 </v>
   <v>      -0.12500000       0.25000000       0.00000000 </v>
   <v>      -0.00000000       0.37500000       0.00000000 </v>
   <v>       0.12500000       0.37500000       0.00000000 </v>
   <v>       0.25000000       0.37500000       0.00000000 </v>
   <v>       0.37500000       0.37500000       0.00000000 </v>
   <v>       0.50000000       0.37500000       0.00000000 </v>
   <v>      -0.37500000       0.37500000       0.00000000 </v>
   <v>      -0.25000000       0.37500000       0.00000000 </v>
   <v>      -0.12500000       0.37500000       0.00000000 </v>
   <v>       0.00000000       0.50000000       0.00000000 </v>
   <v>       0.12500000       0.50000000       0.00000000 </v>
   <v>       0.25000000       0.50000000       0.00000000 </v>
   <v>       0.37500000       0.50000000       0.00000000 </v>
   <v>       0.50000000       0.50000000       0.00000000 </v>
  </varray>
  <varray name="weights" >
   <v>       0.01562500 </v>
   <v>       0.03125000 </v>
   <v>       0.03125000 </v>
   <v>       0.03125000 </v>
   <v>       0.01562500 </v>
   <v>       0.03125000 </v>
   <v>       0.03125000 </v>
   <v>       0.03125000 </v>
   <v>       0.03125000 </v>
   <v>       0.03125000 </v>
   <v>       0.03125000 </v>
   <v>       0.03125000 </v>
   <v>       0.03125000 </v>
   <v>       0.03125000 </v>
   <v>       0.03125000 </v>
   <v>       0.03125000 </v>
   <v>       0.03125000 </v>
   <v>       0.03125000 </v>
   <v>       0.03125000 </v>
   <v>       0.03125000 </v>
   <v>       0.03125000 </v>
   <v>       0.03125000 </v>
   <v>       0.03125000 </v>
   <v>       0.03125000 </v>
   <v>       0.03125000 </v>
   <v>       0.03125000 </v>
   <v>       0.03125000 </v>
   <v>       0.03125000 </v>
   <v>       0.03125000 </v>
   <v>       0.01562500 </v>
   <v>       0.03125000 </v>
   <v>       0.03125000 </v>
   <v>       0.03125000 </v>
   <v>       0.01562500 </v>
  </varray>
 </kpoints>
 <parameters>
  <separator name="general" >
   <i type="string" name="SYSTEM">unknown system</i>
   <i type="logical" name="LCOMPAT"> F  </i>
  </separator>
  <separator name="electronic" >
   <i type="string" name="PREC">normal</i>
   <i name="ENMAX">    280.00000000</i>
   <i name="ENAUG">    373.43800000</i>
   <i name="EDIFF">      0.00010000</i>
   <i type="int" name="IALGO">    38</i>
   <i type="int" name="IWAVPR">    11</i>
   <i type="int" name="NBANDS">   120</i>
   <i name="NELECT">    159.00000000</i>
   <i type="int" name="TURBO">     0</i>
   <i type="int" name="IRESTART">     0</i>
   <i type="int" name="NREBOOT">     0</i>
   <i type="int" name="NMIN">     0</i>
   <i name="EREF">      0.00000000</i>
   <separator name="electronic smearing" >
    <i type="int" name="ISMEAR">     0</i>
    <i name="SIGMA">      0.20000000</i>
    <i name="KSPACING">      0.50000000</i>
    <i type="logical" name="KGAMMA"> T  </i>
   </separator>
   <separator name="electronic projectors" >
    <i type="logical" name="LREAL"> F  </i>
    <v name="ROPT">      0.00000000      0.00000000      0.00000000      0.00000000</v>
    <i type="int" name="LMAXPAW">  -100</i>
    <i type="int" name="LMAXMIX">     2</i>
    <i type="logical" name="NLSPLINE"> F  </i>
   </separator>
   <separator name="electronic startup" >
    <i type="int" name="ISTART">     0</i>
    <i type="int" name="ICHARG">     2</i>
    <i type="int" name="INIWAV">     1</i>
   </separator>
   <separator name="electronic spin" >
    <i type="int" name="ISPIN">     1</i>
    <i type="logical" name="LNONCOLLINEAR"> F  </i>
    <v name="MAGMOM">      1.00000000      1.00000000      1.00000000      1.00000000      1.00000000      1.00000000      1.00000000      1.00000000      1.00000000      1.00000000      1.00000000      1.00000000      1.00000000      1.00000000      1.00000000      1.00000000      1.00000000      1.00000000      1.00000000      1.00000000
      1.00000000      1.00000000      1.00000000      1.00000000      1.00000000      1.00000000      1.00000000</v>
    <i name="NUPDOWN">     -1.00000000</i>
    <i type="logical" name="LSORBIT"> F  </i>
    <v name="SAXIS">      0.00000000      0.00000000      1.00000000</v>
    <i type="logical" name="LSPIRAL"> F  </i>
    <v name="QSPIRAL">      0.00000000      0.00000000      0.00000000</v>
    <i type="logical" name="LZEROZ"> F  </i>
   </separator>
   <separator name="electronic exchange-correlation" >
    <i type="logical" name="LASPH"> F  </i>
    <i type="logical" name="LMETAGGA"> F  </i>
   </separator>
   <separator name="electronic convergence" >
    <i type="int" name="NELM">    60</i>
    <i type="int" name="NELMDL">    -5</i>
    <i type="int" name="NELMIN">     2</i>
    <i name="ENINI">    280.00000000</i>
    <separator name="electronic convergence detail" >
     <i type="logical" name="LDIAG"> T  </i>
     <i type="logical" name="LSUBROT"> F  </i>
     <i name="WEIMIN">      0.00100000</i>
     <i name="EBREAK">      0.00000021</i>
     <i name="DEPER">      0.30000000</i>
     <i type="int" name="NRMM">     4</i>
     <i name="TIME">      0.40000000</i>
    </separator>
   </separator>
   <separator name="electronic mixer" >
    <i name="AMIX">      0.40000000</i>
    <i name="BMIX">      1.00000000</i>
    <i name="AMIN">      0.10000000</i>
    <i name="AMIX_MAG">      1.60000000</i>
    <i name="BMIX_MAG">      1.00000000</i>
    <separator name="electronic mixer details" >
     <i type="int" name="IMIX">     4</i>
     <i type="logical" name="MIXFIRST"> F  </i>
     <i type="int" name="MAXMIX">   -45</i>
     <i name="WC">    100.00000000</i>
     <i type="int" name="INIMIX">     1</i>
     <i type="int" name="MIXPRE">     1</i>
     <i type="int" name="MREMOVE">     5</i>
    </separator>
   </separator>
   <separator name="electronic dipolcorrection" >
    <i type="logical" name="LDIPOL"> F  </i>
    <i type="logical" name="LMONO"> F  </i>
    <i type="int" name="IDIPOL">     0</i>
    <i name="EPSILON">      1.00000000</i>
    <v name="DIPOL">   -100.00000000   -100.00000000   -100.00000000</v>
    <i name="EFIELD">      0.00000000</i>
   </separator>
  </separator>
  <separator name="grids" >
   <i type="int" name="NGX">    42</i>
   <i type="int" name="NGY">    42</i>
   <i type="int" name="NGZ">   126</i>
   <i type="int" name="NGXF">    84</i>
   <i type="int" name="NGYF">    84</i>
   <i type="int" name="NGZF">   252</i>
   <i type="logical" name="ADDGRID"> F  </i>
  </separator>
  <separator name="ionic" >
   <i type="int" name="NSW">   100</i>
   <i type="int" name="IBRION">     1</i>
   <i type="int" name="ISIF">     3</i>
   <i name="PSTRESS">      0.00000000</i>
   <i name="EDIFFG">      0.00100000</i>
   <i type="int" name="NFREE">     0</i>
   <i name="POTIM">      0.50000000</i>
   <i name="SMASS">     -3.00000000</i>
   <i name="SCALEE">      1.00000000</i>
  </separator>
  <separator name="ionic md" >
   <i name="TEBEG">      0.00010000</i>
   <i name="TEEND">      0.00010000</i>
   <i type="int" name="NBLOCK">     1</i>
   <i type="int" name="KBLOCK">   100</i>
   <i type="int" name="NPACO">   256</i>
   <i name="APACO">     16.00000000</i>
  </separator>
  <separator name="symmetry" >
   <i type="int" name="ISYM">     0</i>
   <i name="SYMPREC">      0.00000001</i>
  </separator>
  <separator name="dos" >
   <i type="logical" name="LORBIT"> F  </i>
   <v name="RWIGS">     -1.00000000     -1.00000000     -1.00000000     -1.00000000</v>
   <i type="int" name="NEDOS">   301</i>
   <i name="EMIN">     10.00000000</i>
   <i name="EMAX">    -10.00000000</i>
   <i name="EFERMI">      0.00000000</i>
  </separator>
  <separator name="writing" >
   <i type="int" name="NWRITE">     2</i>
   <i type="logical" name="LWAVE"> F  </i>
   <i type="logical" name="LCHARG"> F  </i>
   <i type="logical" name="LPARD"> F  </i>
   <i type="logical" name="LVTOT"> F  </i>
   <i type="logical" name="LVHAR"> F  </i>
   <i type="logical" name="LELF"> F  </i>
   <i type="logical" name="LOPTICS"> F  </i>
   <v name="STM">      0.00000000      0.00000000      0.00000000      0.00000000      0.00000000      0.00000000      0.00000000</v>
  </separator>
  <separator name="performance" >
   <i type="int" name="NPAR">    40</i>
   <i type="int" name="NSIM">     4</i>
   <i type="int" name="NBLK">    -1</i>
   <i type="logical" name="LPLANE"> F  </i>
   <i type="logical" name="LSCALAPACK"> T  </i>
   <i type="logical" name="LSCAAWARE"> F  </i>
   <i type="logical" name="LSCALU"> F  </i>
   <i type="logical" name="LASYNC"> F  </i>
   <i type="logical" name="LORBITALREAL"> F  </i>
  </separator>
  <separator name="miscellaneous" >
   <i type="int" name="IDIOT">     3</i>
   <i type="logical" name="LMUSIC"> F  </i>
   <v name="POMASS">     50.94100000     95.94000000    183.85000000     32.06600000</v>
   <v name="DARWINR">      0.00000000      0.00000000      0.00000000      0.00000000</v>
   <v name="DARWINV">      1.00000000      1.00000000      1.00000000      1.00000000</v>
   <i type="logical" name="LCORR"> T  </i>
  </separator>
  <i type="logical" name="GGA_COMPAT"> T  </i>
  <i type="logical" name="LBERRY"> F  </i>
  <i type="int" name="ICORELEVEL">     0</i>
  <i type="logical" name="LDAU"> F  </i>
  <i type="int" name="I_CONSTRAINED_M">     0</i>
  <separator name="electronic exchange-correlation" >
   <i type="string" name="GGA">--</i>
   <i type="int" name="VOSKOWN">     0</i>
   <i type="logical" name="LHFCALC"> F  </i>
   <i type="string" name="PRECFOCK"></i>
   <i type="logical" name="LSYMGRAD"> F  </i>
   <i type="logical" name="LHFONE"> F  </i>
   <i type="logical" name="LRHFCALC"> F  </i>
   <i type="logical" name="LTHOMAS"> F  </i>
   <i type="logical" name="LMODELHF"> F  </i>
   <i name="ENCUT4O">     -1.00000000</i>
   <i type="int" name="EXXOEP">     0</i>
   <i type="int" name="FOURORBIT">     0</i>
   <i name="AEXX">      0.00000000</i>
   <i name="HFALPHA">      0.00000000</i>
   <i name="MCALPHA">      0.00000000</i>
   <i name="ALDAX">      1.00000000</i>
   <i name="AGGAX">      1.00000000</i>
   <i name="ALDAC">      1.00000000</i>
   <i name="AGGAC">      1.00000000</i>
   <i type="int" name="NKREDX">     1</i>
   <i type="int" name="NKREDY">     1</i>
   <i type="int" name="NKREDZ">     1</i>
   <i type="logical" name="SHIFTRED"> F  </i>
   <i type="logical" name="ODDONLY"> F  </i>
   <i type="logical" name="EVENONLY"> F  </i>
   <i type="int" name="LMAXFOCK">     0</i>
   <i type="int" name="NMAXFOCKAE">     0</i>
   <i type="logical" name="LFOCKAEDFT"> F  </i>
   <i name="HFSCREEN">      0.00000000</i>
   <i name="HFSCREENC">      0.00000000</i>
   <i type="int" name="NBANDSGWLOW">     0</i>
  </separator>
  <separator name="vdW DFT" >
   <i type="logical" name="LUSE_VDW"> F  </i>
   <i name="Zab_VDW">     -0.84910000</i>
   <i name="PARAM1">      0.12340000</i>
   <i name="PARAM2">      1.00000000</i>
   <i name="PARAM3">      0.00000000</i>
  </separator>
  <separator name="model GW" >
   <i type="int" name="MODEL_GW">     0</i>
   <i name="MODEL_EPS0">     58.26239943</i>
   <i name="MODEL_ALPHA">      1.00000000</i>
  </separator>
  <separator name="linear response parameters" >
   <i type="logical" name="LEPSILON"> F  </i>
   <i type="logical" name="LRPA"> F  </i>
   <i type="logical" name="LNABLA"> F  </i>
   <i type="logical" name="LVEL"> F  </i>
   <i type="int" name="KINTER">     0</i>
   <i name="CSHIFT">      0.10000000</i>
   <i name="OMEGAMAX">     -1.00000000</i>
   <i name="DEG_THRESHOLD">      0.00200000</i>
  </separator>
  <separator name="orbital magnetization" >
   <i type="logical" name="NUCIND"> F  </i>
   <v name="MAGPOS">      0.00000000      0.00000000      0.00000000</v>
   <i type="logical" name="LNICSALL"> T  </i>
   <i type="logical" name="ORBITALMAG"> F  </i>
   <i type="logical" name="LMAGBLOCH"> F  </i>
   <i type="logical" name="LCHIMAG"> F  </i>
   <i type="logical" name="LGAUGE"> T  </i>
   <i type="int" name="MAGATOM">     0</i>
   <v name="MAGDIPOL">      0.00000000      0.00000000      0.00000000</v>
   <v name="AVECCONST">      0.00000000      0.00000000      0.00000000</v>
  </separator>
  <separator name="response functions" >
   <i type="logical" name="LADDER"> F  </i>
   <i type="logical" name="LFXC"> F  </i>
   <i type="logical" name="LHARTREE"> T  </i>
   <i type="int" name="IBSE">     0</i>
   <v type="int" name="KPOINT">    -1     0     0     0</v>
   <i type="logical" name="LTCTE"> F  </i>
   <i type="logical" name="LTETE"> F  </i>
   <i type="logical" name="LTRIPLET"> F  </i>
   <i type="logical" name="LFXCEPS"> F  </i>
   <i type="logical" name="LFXHEG"> F  </i>
   <i type="int" name="NATURALO">     0</i>
   <i type="logical" name="L2ORDER"> F  </i>
   <i type="logical" name="LUSEW"> F  </i>
   <i name="ENCUTGW">     -2.00000000</i>
   <i name="ENCUTGWSOFT">     -2.00000000</i>
   <i name="ENCUTLF">     -1.00000000</i>
   <i type="int" name="LMAXMP2">    -1</i>
   <i name="SCISSOR">      0.00000000</i>
   <i type="int" name="NOMEGA">     0</i>
   <i type="int" name="NOMEGAR">     0</i>
   <i type="int" name="NBANDSGW">    -1</i>
   <i type="int" name="NBANDSO">    -1</i>
   <i type="int" name="NBANDSV">    -1</i>
   <i type="int" name="NELM">     1</i>
   <i type="int" name="NELMHF">     1</i>
   <i type="int" name="DIM">     3</i>
   <i type="int" name="ANTIRES">     0</i>
   <i name="OMEGAMAX">    -30.00000000</i>
   <i name="OMEGAMIN">    -30.00000000</i>
   <i name="OMEGATL">   -200.00000000</i>
   <i type="int" name="OMEGAGRID">     0</i>
   <i name="CSHIFT">     -0.10000000</i>
   <i type="logical" name="SELFENERGY"> F  </i>
   <i type="logical" name="LSPECTRAL"> F  </i>
   <i type="logical" name="LSPECTRALGW"> F  </i>
   <i type="logical" name="LSINGLES"> F  </i>
   <i type="logical" name="LFERMIGW"> F  </i>
   <i type="logical" name="ODDONLYGW"> F  </i>
   <i type="logical" name="EVENONLYGW"> F  </i>
   <i type="int" name="NKREDLFX">     1</i>
   <i type="int" name="NKREDLFY">     1</i>
   <i type="int" name="NKREDLFZ">     1</i>
   <i type="int" name="MAXMEM">  1800</i>
   <i type="int" name="TELESCOPE">     0</i>
   <i type="int" name="TAUPAR">     1</i>
   <i type="int" name="OMEGAPAR">    -1</i>
   <i name="LAMBDA">      1.00000000</i>
  </separator>
  <separator name="External order field" >
   <i name="OFIELD_KAPPA">      0.00000000</i>
   <v name="OFIELD_K">      0.00000000      0.00000000      0.00000000</v>
   <i name="OFIELD_Q6_NEAR">      0.00000000</i>
   <i name="OFIELD_Q6_FAR">      0.00000000</i>
   <i name="OFIELD_A">      0.00000000</i>
  </separator>
 </parameters>
 <atominfo>
  <atoms>      27 </atoms>
  <types>       4 </types>
  <array name="atoms" >
   <dimension dim="1">ion</dimension>
   <field type="string">element</field>
   <field type="int">atomtype</field>
   <set>
    <rc><c>V </c><c>   1</c></rc>
    <rc><c>V </c><c>   1</c></rc>
    <rc><c>V </c><c>   1</c></rc>
    <rc><c>Mo</c><c>   2</c></rc>
    <rc><c>Mo</c><c>   2</c></rc>
    <rc><c>Mo</c><c>   2</c></rc>
    <rc><c>W </c><c>   3</c></rc>
    <rc><c>W </c><c>   3</c></rc>
    <rc><c>W </c><c>   3</c></rc>
    <rc><c>S </c><c>   4</c></rc>
    <rc><c>S </c><c>   4</c></rc>
    <rc><c>S </c><c>   4</c></rc>
    <rc><c>S </c><c>   4</c></rc>
    <rc><c>S </c><c>   4</c></rc>
    <rc><c>S </c><c>   4</c></rc>
    <rc><c>S </c><c>   4</c></rc>
    <rc><c>S </c><c>   4</c></rc>
    <rc><c>S </c><c>   4</c></rc>
    <rc><c>S </c><c>   4</c></rc>
    <rc><c>S </c><c>   4</c></rc>
    <rc><c>S </c><c>   4</c></rc>
    <rc><c>S </c><c>   4</c></rc>
    <rc><c>S </c><c>   4</c></rc>
    <rc><c>S </c><c>   4</c></rc>
    <rc><c>S </c><c>   4</c></rc>
    <rc><c>S </c><c>   4</c></rc>
    <rc><c>S </c><c>   4</c></rc>
   </set>
  </array>
  <array name="atomtypes" >
   <dimension dim="1">type</dimension>
   <field type="int">atomspertype</field>
   <field type="string">element</field>
   <field>mass</field>
   <field>valence</field>
   <field type="string">pseudopotential</field>
   <set>
    <rc><c>   3</c><c>V </c><c>     50.94100000</c><c>      5.00000000</c><c> PAW_PBE V 08Apr2002                    </c></rc>
    <rc><c>   3</c><c>Mo</c><c>     95.94000000</c><c>      6.00000000</c><c> PAW_PBE Mo 08Apr2002                   </c></rc>
    <rc><c>   3</c><c>W </c><c>    183.85000000</c><c>      6.00000000</c><c> PAW_PBE W 08Apr2002                    </c></rc>
    <rc><c>  18</c><c>S </c><c>     32.06600000</c><c>      6.00000000</c><c>  PAW_PBE S 17Jan2003                   </c></rc>
   </set>
  </array>
 </atominfo>
 <structure name="initialpos" >
  <crystal>
   <varray name="basis" >
    <v>       8.66999996       5.03999989       0.00000000 </v>
    <v>      -8.66999982       5.04000013       0.00000000 </v>
    <v>       0.00000000       0.00000000      30.00000000 </v>
   </varray>
   <i name="volume">   2621.80797419 </i>
   <varray name="rec_basis" >
    <v>       0.05767013       0.09920635       0.00000000 </v>
    <v>      -0.05767013       0.09920635       0.00000000 </v>
    <v>       0.00000000       0.00000000       0.03333333 </v>
   </varray>
  </crystal>
  <varray name="positions" >
   <v>       0.66666669       0.33333334       0.00000000 </v>
   <v>       0.00000000       0.66666669       0.00000000 </v>
   <v>       0.66666669       0.66666669       0.00000000 </v>
   <v>       0.33333334       0.00000000       0.00000000 </v>
   <v>       0.33333334       0.33333334       0.00000000 </v>
   <v>       0.00000000       0.00000000       0.00000000 </v>
   <v>       1.00000000       0.33333334       0.00000000 </v>
   <v>       0.33333334       0.66666669       0.00000000 </v>
   <v>       0.66666669       0.00000000       0.00000000 </v>
   <v>       0.11068511       0.22244981       0.95539999 </v>
   <v>       0.22244981       0.11068511       0.04460000 </v>
   <v>       0.11068511       0.55578315       0.95539999 </v>
   <v>       0.22244981       0.44401845       0.04460000 </v>
   <v>       0.11068511       0.88911647       0.95539999 </v>
   <v>       0.22244981       0.77735180       0.04460000 </v>
   <v>       0.44401845       0.22244981       0.95539999 </v>
   <v>       0.55578315       0.11068511       0.04460000 </v>
   <v>       0.44401845       0.55578315       0.95539999 </v>
   <v>       0.55578315       0.44401845       0.04460000 </v>
   <v>       0.44401845       0.88911647       0.95539999 </v>
   <v>       0.55578315       0.77735180       0.04460000 </v>
   <v>       0.77735180       0.22244981       0.95539999 </v>
   <v>       0.88911647       0.11068511       0.04460000 </v>
   <v>       0.77735180       0.55578315       0.95539999 </v>
   <v>       0.88911647       0.44401845       0.04460000 </v>
   <v>       0.77735180       0.88911647       0.95539999 </v>
   <v>       0.88911647       0.77735180       0.04460000 </v>
  </varray>
 </structure>
 <calculation>
  <scstep>
   <time name="dav">   21.78   21.83</time>
   <time name="total">   21.82   21.88</time>
   <energy>
    <i name="alphaZ">     81.65567618 </i>
    <i name="ewald">  41891.17177386 </i>
    <i name="hartreedc"> -47723.81786615 </i>
    <i name="XCdc">   -242.92476651 </i>
    <i name="pawpsdc">   3467.42045192 </i>
    <i name="pawaedc">  -2871.19716117 </i>
    <i name="eentropy">     -0.53708192 </i>
    <i name="bandstr">   -239.37737335 </i>
    <i name="atom">   6761.44252427 </i>
    <i name="e_fr_energy">   1123.83617713 </i>
    <i name="e_wo_entrp">   1124.37325905 </i>
    <i name="e_0_energy">   1124.10471809 </i>
   </energy>
  </scstep>
  <scstep>
   <time name="dav">   28.49   28.56</time>
   <time name="total">   28.50   28.57</time>
   <energy>
    <i name="e_fr_energy">     -5.49655771 </i>
    <i name="e_wo_entrp">     -5.29784764 </i>
    <i name="e_0_energy">     -5.39720268 </i>
   </energy>
  </scstep>
  <scstep>
   <time name="dav">   27.69   27.76</time>
   <time name="total">   27.69   27.77</time>
   <energy>
    <i name="e_fr_energy">   -200.05509150 </i>
    <i name="e_wo_entrp">   -199.77924711 </i>
    <i name="e_0_energy">   -199.91716930 </i>
   </energy>
  </scstep>
  <scstep>
   <time name="dav">   30.15   30.22</time>
   <time name="total">   30.15   30.23</time>
   <energy>
    <i name="e_fr_energy">   -208.96832859 </i>
    <i name="e_wo_entrp">   -208.66359864 </i>
    <i name="e_0_energy">   -208.81596362 </i>
   </energy>
  </scstep>
  <scstep>
   <time name="dav">   28.22   28.29</time>
   <time name="total">   28.69   28.77</time>
   <energy>
    <i name="e_fr_energy">   -209.27213474 </i>
    <i name="e_wo_entrp">   -208.97010994 </i>
    <i name="e_0_energy">   -209.12112234 </i>
   </energy>
  </scstep>
  <scstep>
   <time name="dav">   30.64   30.71</time>
   <time name="total">   31.14   31.22</time>
   <energy>
    <i name="e_fr_energy">   -237.51297580 </i>
    <i name="e_wo_entrp">   -237.26113072 </i>
    <i name="e_0_energy">   -237.38705326 </i>
   </energy>
  </scstep>
  <scstep>
   <time name="dav">   33.01   33.09</time>
   <time name="total">   33.52   33.61</time>
   <energy>
    <i name="e_fr_energy">   -196.67452100 </i>
    <i name="e_wo_entrp">   -196.32554115 </i>
    <i name="e_0_energy">   -196.50003107 </i>
   </energy>
  </scstep>
  <scstep>
   <time name="dav">   29.56   29.63</time>
   <time name="total">   30.08   30.15</time>
   <energy>
    <i name="e_fr_energy">   -189.72993997 </i>
    <i name="e_wo_entrp">   -189.42073389 </i>
    <i name="e_0_energy">   -189.57533693 </i>
   </energy>
  </scstep>
  <scstep>
   <time name="dav">   31.50   31.58</time>
   <time name="total">   32.03   32.11</time>
   <energy>
    <i name="e_fr_energy">   -188.20485451 </i>
    <i name="e_wo_entrp">   -187.86810230 </i>
    <i name="e_0_energy">   -188.03647841 </i>
   </energy>
  </scstep>
  <scstep>
   <time name="dav">   32.86   32.94</time>
   <time name="total">   33.40   33.49</time>
   <energy>
    <i name="e_fr_energy">   -186.93364827 </i>
    <i name="e_wo_entrp">   -186.58221301 </i>
    <i name="e_0_energy">   -186.75793064 </i>
   </energy>
  </scstep>
  <scstep>
   <time name="dav">   32.48   32.56</time>
   <time name="total">   33.02   33.11</time>
   <energy>
    <i name="e_fr_energy">   -187.00571861 </i>
    <i name="e_wo_entrp">   -186.66513819 </i>
    <i name="e_0_energy">   -186.83542840 </i>
   </energy>
  </scstep>
  <scstep>
   <time name="dav">   31.59   31.66</time>
   <time name="total">   32.13   32.21</time>
   <energy>
    <i name="e_fr_energy">   -186.91145754 </i>
    <i name="e_wo_entrp">   -186.57685742 </i>
    <i name="e_0_energy">   -186.74415748 </i>
   </energy>
  </scstep>
  <scstep>
   <time name="dav">   32.24   32.32</time>
   <time name="total">   32.78   32.87</time>
   <energy>
    <i name="e_fr_energy">   -186.86914928 </i>
    <i name="e_wo_entrp">   -186.53253711 </i>
    <i name="e_0_energy">   -186.70084319 </i>
   </energy>
  </scstep>
  <scstep>
   <time name="dav">   31.43   31.51</time>
   <time name="total">   31.97   32.06</time>
   <energy>
    <i name="e_fr_energy">   -186.82748798 </i>
    <i name="e_wo_entrp">   -186.48341256 </i>
    <i name="e_0_energy">   -186.65545027 </i>
   </energy>
  </scstep>
  <scstep>
   <time name="dav">   28.96   29.03</time>
   <time name="total">   29.50   29.58</time>
   <energy>
    <i name="e_fr_energy">   -186.82222108 </i>
    <i name="e_wo_entrp">   -186.47847581 </i>
    <i name="e_0_energy">   -186.65034845 </i>
   </energy>
  </scstep>
  <scstep>
   <time name="dav">   31.13   31.20</time>
   <time name="total">   31.67   31.75</time>
   <energy>
    <i name="e_fr_energy">   -186.82036463 </i>
    <i name="e_wo_entrp">   -186.47815252 </i>
    <i name="e_0_energy">   -186.64925857 </i>
   </energy>
  </scstep>
  <scstep>
   <time name="dav">   31.98   32.05</time>
   <time name="total">   32.52   32.61</time>
   <energy>
    <i name="e_fr_energy">   -186.82062384 </i>
    <i name="e_wo_entrp">   -186.47795176 </i>
    <i name="e_0_energy">   -186.64928780 </i>
   </energy>
  </scstep>
  <scstep>
   <time name="dav">   27.05   27.12</time>
   <time name="total">   27.59   27.66</time>
   <energy>
    <i name="e_fr_energy">   -186.81982749 </i>
    <i name="e_wo_entrp">   -186.47706650 </i>
    <i name="e_0_energy">   -186.64844700 </i>
   </energy>
  </scstep>
  <scstep>
   <time name="dav">   25.23   25.29</time>
   <time name="total">   25.77   25.84</time>
   <energy>
    <i name="e_fr_energy">   -186.82044839 </i>
    <i name="e_wo_entrp">   -186.47814098 </i>
    <i name="e_0_energy">   -186.64929468 </i>
   </energy>
  </scstep>
  <scstep>
   <time name="dav">   21.17   21.22</time>
   <time name="total">   21.71   21.77</time>
   <energy>
    <i name="e_fr_energy">   -186.82085127 </i>
    <i name="e_wo_entrp">   -186.47854352 </i>
    <i name="e_0_energy">   -186.64969739 </i>
   </energy>
  </scstep>
  <scstep>
   <time name="dav">   21.28   21.33</time>
   <time name="total">   21.82   21.88</time>
   <energy>
    <i name="e_fr_energy">   -186.82194196 </i>
    <i name="e_wo_entrp">   -186.47948040 </i>
    <i name="e_0_energy">   -186.65071118 </i>
   </energy>
  </scstep>
  <scstep>
   <time name="dav">   21.03   21.08</time>
   <time name="total">   21.57   21.63</time>
   <energy>
    <i name="e_fr_energy">   -186.82333147 </i>
    <i name="e_wo_entrp">   -186.48101277 </i>
    <i name="e_0_energy">   -186.65217212 </i>
   </energy>
  </scstep>
  <scstep>
   <time name="dav">   18.58   18.63</time>
   <time name="total">   19.12   19.18</time>
   <energy>
    <i name="e_fr_energy">   -186.82395232 </i>
    <i name="e_wo_entrp">   -186.48160583 </i>
    <i name="e_0_energy">   -186.65277907 </i>
   </energy>
  </scstep>
  <scstep>
   <time name="dav">   17.22   17.27</time>
   <time name="total">   17.76   17.81</time>
   <energy>
    <i name="e_fr_energy">   -186.82420179 </i>
    <i name="e_wo_entrp">   -186.48183454 </i>
    <i name="e_0_energy">   -186.65301816 </i>
   </energy>
  </scstep>
  <scstep>
   <time name="dav">   16.49   16.53</time>
   <time name="total">   17.04   17.09</time>
   <energy>
    <i name="e_fr_energy">   -186.82456608 </i>
    <i name="e_wo_entrp">   -186.48216871 </i>
    <i name="e_0_energy">   -186.65336740 </i>
   </energy>
  </scstep>
  <scstep>
   <time name="dav">   19.02   19.06</time>
   <time name="total">   19.56   19.61</time>
   <energy>
    <i name="e_fr_energy">   -186.82479952 </i>
    <i name="e_wo_entrp">   -186.48241514 </i>
    <i name="e_0_energy">   -186.65360733 </i>
   </energy>
  </scstep>
  <scstep>
   <time name="dav">   20.24   20.29</time>
   <time name="total">   20.28   20.34</time>
   <energy>
    <i name="alphaZ">     81.65567618 </i>
    <i name="ewald">  41891.17177386 </i>
    <i name="hartreedc"> -47833.68414728 </i>
    <i name="XCdc">   -231.60842081 </i>
    <i name="pawpsdc">   4192.08353168 </i>
    <i name="pawaedc">  -3610.08124848 </i>
    <i name="eentropy">     -0.34238067 </i>
    <i name="bandstr">  -1437.46218936 </i>
    <i name="atom">   6761.44252427 </i>
    <i name="e_fr_energy">   -186.82488062 </i>
    <i name="e_wo_entrp">   -186.48249995 </i>
    <i name="e_0_energy">   -186.65369028 </i>
   </energy>
  </scstep>
  <structure>
   <crystal>
    <varray name="basis" >
     <v>       8.66999996       5.03999989       0.00000000 </v>
     <v>      -8.66999982       5.04000013       0.00000000 </v>
     <v>       0.00000000       0.00000000      30.00000000 </v>
    </varray>
    <i name="volume">   2621.80797419 </i>
    <varray name="rec_basis" >
     <v>       0.05767013       0.09920635       0.00000000 </v>
     <v>      -0.05767013       0.09920635       0.00000000 </v>
     <v>       0.00000000       0.00000000       0.03333333 </v>
    </varray>
   </crystal>
   <varray name="positions" >
    <v>       0.66666669       0.33333334       0.00000000 </v>
    <v>       0.00000000       0.66666669       0.00000000 </v>
    <v>       0.66666669       0.66666669       0.00000000 </v>
    <v>       0.33333334       0.00000000       0.00000000 </v>
    <v>       0.33333334       0.33333334       0.00000000 </v>
    <v>       0.00000000       0.00000000       0.00000000 </v>
    <v>       1.00000000       0.33333334       0.00000000 </v>
    <v>       0.33333334       0.66666669       0.00000000 </v>
    <v>       0.66666669       0.00000000       0.00000000 </v>
    <v>       0.11068511       0.22244981       0.95539999 </v>
    <v>       0.22244981       0.11068511       0.04460000 </v>
    <v>       0.11068511       0.55578315       0.95539999 </v>
    <v>       0.22244981       0.44401845       0.04460000 </v>
    <v>       0.11068511       0.88911647       0.95539999 </v>
    <v>       0.22244981       0.77735180       0.04460000 </v>
    <v>       0.44401845       0.22244981       0.95539999 </v>
    <v>       0.55578315       0.11068511       0.04460000 </v>
    <v>       0.44401845       0.55578315       0.95539999 </v>
    <v>       0.55578315       0.44401845       0.04460000 </v>
    <v>       0.44401845       0.88911647       0.95539999 </v>
    <v>       0.55578315       0.77735180       0.04460000 </v>
    <v>       0.77735180       0.22244981       0.95539999 </v>
    <v>       0.88911647       0.11068511       0.04460000 </v>
    <v>       0.77735180       0.55578315       0.95539999 </v>
    <v>       0.88911647       0.44401845       0.04460000 </v>
    <v>       0.77735180       0.88911647       0.95539999 </v>
    <v>       0.88911647       0.77735180       0.04460000 </v>
   </varray>
  </structure>
  <varray name="forces" >
   <v>      -0.30165595      -0.21332621       0.01941225 </v>
   <v>      -0.30087314       0.21622034       0.01979572 </v>
   <v>       0.18106804       0.00070876      -0.03024788 </v>
   <v>      -0.53831147      -0.00244609       0.08243261 </v>
   <v>       0.29277938      -0.41027444      -0.10912404 </v>
   <v>       0.29223316       0.40385651      -0.10973363 </v>
   <v>       0.42050574      -0.00468269      -0.03802136 </v>
   <v>       0.00855713      -0.01219571       0.09526817 </v>
   <v>       0.00657204       0.00316658       0.09382967 </v>
   <v>      -0.05651362       0.00190780      -2.96602212 </v>
   <v>      -0.08456982       0.00202684       2.93766439 </v>
   <v>      -0.59760773      -0.01559766      -2.12025738 </v>
   <v>      -0.29289227       0.03706962       2.87616379 </v>
   <v>       0.50354093      -0.70778337      -2.16739488 </v>
   <v>      -0.35186070      -0.68137901       2.15484767 </v>
   <v>       0.50096650       0.70756937      -2.17077521 </v>
   <v>      -0.34859171       0.68128934       2.15861447 </v>
   <v>       0.37163703       0.68227482      -2.12529732 </v>
   <v>       0.33197156       0.67769504       1.41100475 </v>
   <v>       0.26548691       0.00283617      -2.83901598 </v>
   <v>       0.57528035       0.00238022       2.15859108 </v>
   <v>      -0.59701715       0.02072595      -2.11993446 </v>
   <v>      -0.29243052      -0.03197661       2.87639763 </v>
   <v>       0.05223462      -0.00135552      -0.78438897 </v>
   <v>      -0.74470443      -0.00107750       1.40997114 </v>
   <v>       0.37473763      -0.68108544      -2.12165940 </v>
   <v>       0.32945749      -0.67654711       1.40787932 </v>
  </varray>
  <varray name="stress" >
   <v>       7.16114169       0.00026769      -1.38352636 </v>
   <v>       0.00026754       4.60120561       0.00006140 </v>
   <v>      -1.38352644       0.00006130      30.31752804 </v>
  </varray>
  <energy>
   <i name="e_fr_energy">   -186.82488062 </i>
   <i name="e_wo_entrp">   -186.65369028 </i>
   <i name="e_0_energy">     -0.34238067 </i>
  </energy>
  <time name="totalsc">  775.22  777.28</time>
 </calculation>
 <calculation>
  <scstep>
   <time name="dav">   21.82   21.87</time>
   <time name="total">   22.37   22.42</time>
   <energy>
    <i name="alphaZ">     78.91928903 </i>
    <i name="ewald">  39378.01645935 </i>
    <i name="hartreedc"> -45335.33014187 </i>
    <i name="XCdc">   -239.07683739 </i>
    <i name="pawpsdc">   4192.06105425 </i>
    <i name="pawaedc">  -3610.05911170 </i>
    <i name="eentropy">     -0.28232565 </i>
    <i name="bandstr">  -1413.18471753 </i>
    <i name="atom">   6761.44252427 </i>
    <i name="e_fr_energy">   -187.49380725 </i>
    <i name="e_wo_entrp">   -187.21148159 </i>
    <i name="e_0_energy">   -187.35264442 </i>
   </energy>
  </scstep>
  <scstep>
   <time name="dav">   30.35   30.42</time>
   <time name="total">   30.89   30.97</time>
   <energy>
    <i name="e_fr_energy">   -189.37151287 </i>
    <i name="e_wo_entrp">   -189.05407698 </i>
    <i name="e_0_energy">   -189.21279492 </i>
   </energy>
  </scstep>
  <scstep>
   <time name="dav">   30.43   30.50</time>
   <time name="total">   30.99   31.07</time>
   <energy>
    <i name="e_fr_energy">   -189.33297152 </i>
    <i name="e_wo_entrp">   -189.06729287 </i>
    <i name="e_0_energy">   -189.20013220 </i>
   </energy>
  </scstep>
  <scstep>
   <time name="dav">   30.83   30.90</time>
   <time name="total">   31.38   31.46</time>
   <energy>
    <i name="e_fr_energy">   -188.74841460 </i>
    <i name="e_wo_entrp">   -188.46526397 </i>
    <i name="e_0_energy">   -188.60683929 </i>
   </energy>
  </scstep>
  <scstep>
   <time name="dav">   25.89   25.96</time>
   <time name="total">   26.44   26.51</time>
   <energy>
    <i name="e_fr_energy">   -188.74626395 </i>
    <i name="e_wo_entrp">   -188.46648235 </i>
    <i name="e_0_energy">   -188.60637315 </i>
   </energy>
  </scstep>
  <scstep>
   <time name="dav">   30.27   30.34</time>
   <time name="total">   30.82   30.90</time>
   <energy>
    <i name="e_fr_energy">   -188.71226977 </i>
    <i name="e_wo_entrp">   -188.42958061 </i>
    <i name="e_0_energy">   -188.57092519 </i>
   </energy>
  </scstep>
  <scstep>
   <time name="dav">   31.54   31.62</time>
   <time name="total">   32.09   32.18</time>
   <energy>
    <i name="e_fr_energy">   -188.70303566 </i>
    <i name="e_wo_entrp">   -188.41998715 </i>
    <i name="e_0_energy">   -188.56151141 </i>
   </energy>
  </scstep>
  <scstep>
   <time name="dav">   31.37   31.45</time>
   <time name="total">   31.92   32.01</time>
   <energy>
    <i name="e_fr_energy">   -188.66080770 </i>
    <i name="e_wo_entrp">   -188.38081797 </i>
    <i name="e_0_energy">   -188.52081283 </i>
   </energy>
  </scstep>
  <scstep>
   <time name="dav">   25.89   25.96</time>
   <time name="total">   26.44   26.51</time>
   <energy>
    <i name="e_fr_energy">   -188.65805976 </i>
    <i name="e_wo_entrp">   -188.37847210 </i>
    <i name="e_0_energy">   -188.51826593 </i>
   </energy>
  </scstep>
  <scstep>
   <time name="dav">   30.35   30.42</time>
   <time name="total">   30.90   30.99</time>
   <energy>
    <i name="e_fr_energy">   -188.65785110 </i>
    <i name="e_wo_entrp">   -188.37885272 </i>
    <i name="e_0_energy">   -188.51835191 </i>
   </energy>
  </scstep>
  <scstep>
   <time name="dav">   32.81   32.89</time>
   <time name="total">   33.37   33.45</time>
   <energy>
    <i name="e_fr_energy">   -188.65794877 </i>
    <i name="e_wo_entrp">   -188.37899642 </i>
    <i name="e_0_energy">   -188.51847260 </i>
   </energy>
  </scstep>
  <scstep>
   <time name="dav">   27.00   27.07</time>
   <time name="total">   27.55   27.63</time>
   <energy>
    <i name="e_fr_energy">   -188.65772228 </i>
    <i name="e_wo_entrp">   -188.37877256 </i>
    <i name="e_0_energy">   -188.51824742 </i>
   </energy>
  </scstep>
  <scstep>
   <time name="dav">   20.10   20.15</time>
   <time name="total">   20.13   20.19</time>
   <energy>
    <i name="alphaZ">     78.91928903 </i>
    <i name="ewald">  39378.01645935 </i>
    <i name="hartreedc"> -45346.17883017 </i>
    <i name="XCdc">   -237.98286419 </i>
    <i name="pawpsdc">   3950.26143204 </i>
    <i name="pawaedc">  -3364.76275860 </i>
    <i name="eentropy">     -0.27900438 </i>
    <i name="bandstr">  -1408.09392007 </i>
    <i name="atom">   6761.44252427 </i>
    <i name="e_fr_energy">   -188.65767273 </i>
    <i name="e_wo_entrp">   -188.37866834 </i>
    <i name="e_0_energy">   -188.51817054 </i>
   </energy>
  </scstep>
  <structure>
   <crystal>
    <varray name="basis" >
     <v>       8.85153836       5.10781140       0.00000000 </v>
     <v>      -8.85153034       5.10779807       0.00000000 </v>
     <v>       0.00000000       0.00000000      30.00000000 </v>
    </varray>
    <i name="volume">   2712.71454136 </i>
    <varray name="rec_basis" >
     <v>       0.05648731       0.09788937       0.00000000 </v>
     <v>      -0.05648746       0.09788946       0.00000000 </v>
     <v>       0.00000000       0.00000000       0.03333333 </v>
    </varray>
   </crystal>
   <varray name="positions" >
    <v>       0.66480646       0.33315162       0.00003122 </v>
    <v>       0.00019775       0.66853859       0.00003183 </v>
    <v>       0.66717384       0.66616632      -0.00004864 </v>
    <v>       0.33182397       0.00148596       0.00013256 </v>
    <v>       0.33218434       0.33055522      -0.00017548 </v>
    <v>       0.00274589       0.00111981      -0.00017646 </v>
    <v>       1.00114750       0.33214102      -0.00006114 </v>
    <v>       0.33329878       0.66658451       0.00015320 </v>
    <v>       0.66670013      -0.00000313       0.00015089 </v>
    <v>       0.11053701       0.22261617       0.95063036 </v>
    <v>       0.22222422       0.11093010       0.04932402 </v>
    <v>       0.10894782       0.55737114       0.95199043 </v>
    <v>       0.22181235       0.44501074       0.04922512 </v>
    <v>       0.10869861       0.88432810       0.95191463 </v>
    <v>       0.21820981       0.77506966       0.04806518 </v>
    <v>       0.44879863       0.22444245       0.95190919 </v>
    <v>       0.55807395       0.11491558       0.04807124 </v>
    <v>       0.44831776       0.55801455       0.95198232 </v>
    <v>       0.55995018       0.44633829       0.04686902 </v>
    <v>       0.44477065       0.88839141       0.95083460 </v>
    <v>       0.55739507       0.77576267       0.04807120 </v>
    <v>       0.77578999       0.22421000       0.95199095 </v>
    <v>       0.88814984       0.11134566       0.04922550 </v>
    <v>       0.77749063       0.55563134       0.95413862 </v>
    <v>       0.88703942       0.44608518       0.04686736 </v>
    <v>       0.77513472       0.88481423       0.95198817 </v>
    <v>       0.88679513       0.77319725       0.04686399 </v>
   </varray>
  </structure>
  <varray name="forces" >
   <v>      -0.17864804      -0.22760421       0.09429621 </v>
   <v>      -0.17789615       0.22694039       0.09327795 </v>
   <v>       0.01373228      -0.00080954      -0.06511474 </v>
   <v>      -0.47713193       0.00128202       0.01811020 </v>
   <v>       0.09563128      -0.66570752      -0.03138198 </v>
   <v>       0.09442423       0.66455751      -0.03053596 </v>
   <v>       0.56242286      -0.00094099       0.05595864 </v>
   <v>       0.00059389       0.06123177      -0.06733543 </v>
   <v>      -0.00250651      -0.06188050      -0.06559067 </v>
   <v>      -0.11647318       0.00033102      -0.31735290 </v>
   <v>       0.00845956       0.00043239       0.35267708 </v>
   <v>       0.08970594      -0.01599680       0.13769671 </v>
   <v>      -0.09031760       0.00580715      -0.00164033 </v>
   <v>       0.01964179      -0.06863097      -0.15680691 </v>
   <v>       0.09564579      -0.04557332      -0.01694741 </v>
   <v>       0.01988037       0.06902091      -0.15604447 </v>
   <v>       0.09599144       0.04502249      -0.01829235 </v>
   <v>      -0.10463269       0.03876323       0.13604850 </v>
   <v>       0.01681088       0.04321612      -0.08979899 </v>
   <v>       0.09304005       0.00028937       0.14415666 </v>
   <v>      -0.07749855      -0.00006875       0.00462779 </v>
   <v>       0.09039060       0.01591139       0.13701670 </v>
   <v>      -0.08965337      -0.00504661      -0.00215799 </v>
   <v>       0.00600677      -0.00019330       0.13896807 </v>
   <v>       0.09970363       0.00027249      -0.33998575 </v>
   <v>      -0.10398353      -0.03809739       0.13465094 </v>
   <v>       0.01666015      -0.04252836      -0.08849959 </v>
  </varray>
  <varray name="stress" >
   <v>     -19.91452022      -0.00049786       0.05794137 </v>
   <v>      -0.00049780     -19.52470744       0.00027344 </v>
   <v>       0.05794133       0.00027329      -1.77993288 </v>
  </varray>
  <energy>
   <i name="e_fr_energy">   -188.65767273 </i>
   <i name="e_wo_entrp">   -188.51817054 </i>
   <i name="e_0_energy">     -0.27900438 </i>
  </energy>
  <time name="totalsc">  417.70  418.79</time>
 </calculation>
 <calculation>
  <scstep>
   <time name="dav">   23.84   23.90</time>
   <time name="total">   24.38   24.44</time>
   <energy>
    <i name="alphaZ">     82.33487332 </i>
    <i name="ewald">  41296.68302209 </i>
    <i name="hartreedc"> -47295.17821980 </i>
    <i name="XCdc">   -233.87144145 </i>
    <i name="pawpsdc">   3949.14561035 </i>
    <i name="pawaedc">  -3363.63656899 </i>
    <i name="eentropy">     -0.23542330 </i>
    <i name="bandstr">  -1387.26384636 </i>
    <i name="atom">   6761.44252427 </i>
    <i name="e_fr_energy">   -190.57946988 </i>
    <i name="e_wo_entrp">   -190.34404658 </i>
    <i name="e_0_energy">   -190.46175823 </i>
   </energy>
  </scstep>
  <scstep>
   <time name="dav">   28.63   28.69</time>
   <time name="total">   29.15   29.23</time>
   <energy>
    <i name="e_fr_energy">   -190.51181111 </i>
    <i name="e_wo_entrp">   -190.28668929 </i>
    <i name="e_0_energy">   -190.39925020 </i>
   </energy>
  </scstep>
  <scstep>
   <time name="dav">   30.41   30.48</time>
   <time name="total">   30.94   31.02</time>
   <energy>
    <i name="e_fr_energy">   -190.06658471 </i>
    <i name="e_wo_entrp">   -189.81658569 </i>
    <i name="e_0_energy">   -189.94158520 </i>
   </energy>
  </scstep>
  <scstep>
   <time name="dav">   32.00   32.07</time>
   <time name="total">   32.53   32.62</time>
   <energy>
    <i name="e_fr_energy">   -189.85556535 </i>
    <i name="e_wo_entrp">   -189.62591103 </i>
    <i name="e_0_energy">   -189.74073819 </i>
   </energy>
  </scstep>
  <scstep>
   <time name="dav">   29.29   29.36</time>
   <time name="total">   29.82   29.90</time>
   <energy>
    <i name="e_fr_energy">   -189.76632791 </i>
    <i name="e_wo_entrp">   -189.52987346 </i>
    <i name="e_0_energy">   -189.64810068 </i>
   </energy>
  </scstep>
  <scstep>
   <time name="dav">   29.06   29.13</time>
   <time name="total">   29.59   29.67</time>
   <energy>
    <i name="e_fr_energy">   -189.75633025 </i>
    <i name="e_wo_entrp">   -189.51943536 </i>
    <i name="e_0_energy">   -189.63788280 </i>
   </energy>
  </scstep>
  <scstep>
   <time name="dav">   29.19   29.26</time>
   <time name="total">   29.72   29.80</time>
   <energy>
    <i name="e_fr_energy">   -189.75340753 </i>
    <i name="e_wo_entrp">   -189.51659643 </i>
    <i name="e_0_energy">   -189.63500198 </i>
   </energy>
  </scstep>
  <scstep>
   <time name="dav">   30.43   30.51</time>
   <time name="total">   30.97   31.05</time>
   <energy>
    <i name="e_fr_energy">   -189.75285199 </i>
    <i name="e_wo_entrp">   -189.51620482 </i>
    <i name="e_0_energy">   -189.63452841 </i>
   </energy>
  </scstep>
  <scstep>
   <time name="dav">   26.25   26.32</time>
   <time name="total">   26.79   26.86</time>
   <energy>
    <i name="e_fr_energy">   -189.75330866 </i>
    <i name="e_wo_entrp">   -189.51665397 </i>
    <i name="e_0_energy">   -189.63498131 </i>
   </energy>
  </scstep>
  <scstep>
   <time name="dav">   27.34   27.40</time>
   <time name="total">   27.87   27.94</time>
   <energy>
    <i name="e_fr_energy">   -189.75301609 </i>
    <i name="e_wo_entrp">   -189.51619049 </i>
    <i name="e_0_energy">   -189.63460329 </i>
   </energy>
  </scstep>
  <scstep>
   <time name="dav">   21.03   21.08</time>
   <time name="total">   21.06   21.12</time>
   <energy>
    <i name="alphaZ">     82.33487332 </i>
    <i name="ewald">  41296.68302209 </i>
    <i name="hartreedc"> -47268.71770683 </i>
    <i name="XCdc">   -235.25669590 </i>
    <i name="pawpsdc">   4038.31365781 </i>
    <i name="pawaedc">  -3454.01105836 </i>
    <i name="eentropy">     -0.23682837 </i>
    <i name="bandstr">  -1410.30487608 </i>
    <i name="atom">   6761.44252427 </i>
    <i name="e_fr_energy">   -189.75308804 </i>
    <i name="e_wo_entrp">   -189.51625967 </i>
    <i name="e_0_energy">   -189.63467386 </i>
   </energy>
  </scstep>
  <structure>
   <crystal>
    <varray name="basis" >
     <v>       8.66415847       5.00179654       0.00000000 </v>
     <v>      -8.66415602       5.00179286       0.00000000 </v>
     <v>       0.00000000       0.00000000      30.00000000 </v>
    </varray>
    <i name="volume">   2600.18014608 </i>
    <varray name="rec_basis" >
     <v>       0.05770900       0.09996410       0.00000000 </v>
     <v>      -0.05770904       0.09996413       0.00000000 </v>
     <v>       0.00000000       0.00000000       0.03333333 </v>
    </varray>
   </crystal>
   <varray name="positions" >
    <v>       0.66425773       0.33294501       0.00008450 </v>
    <v>       0.00040398       0.66908550       0.00008454 </v>
    <v>       0.66718564       0.66615183      -0.00008543 </v>
    <v>       0.33136923       0.00194496       0.00014279 </v>
    <v>       0.33117128       0.32935902      -0.00019321 </v>
    <v>       0.00393902       0.00213212      -0.00019372 </v>
    <v>       1.00168447       0.33160092      -0.00002952 </v>
    <v>       0.33340095       0.66668555       0.00011515 </v>
    <v>       0.66659505      -0.00010341       0.00011383 </v>
    <v>       0.11042603       0.22272825       0.95045105 </v>
    <v>       0.22223304       0.11092271       0.04952330 </v>
    <v>       0.10900717       0.55725870       0.95206823 </v>
    <v>       0.22173551       0.44510686       0.04922420 </v>
    <v>       0.10860353       0.88419541       0.95182603 </v>
    <v>       0.21822577       0.77490246       0.04805561 </v>
    <v>       0.44893220       0.22453794       0.95182102 </v>
    <v>       0.55824057       0.11489838       0.04806091 </v>
    <v>       0.44828189       0.55817906       0.95205920 </v>
    <v>       0.56003799       0.44639390       0.04681828 </v>
    <v>       0.44486022       0.88830280       0.95091606 </v>
    <v>       0.55732075       0.77583676       0.04807382 </v>
    <v>       0.77590295       0.22414985       0.95206837 </v>
    <v>       0.88805562       0.11142313       0.04922428 </v>
    <v>       0.77749607       0.55562527       0.95421715 </v>
    <v>       0.88713534       0.44599017       0.04667525 </v>
    <v>       0.77497193       0.88485058       0.95206426 </v>
    <v>       0.88674051       0.77311073       0.04681399 </v>
   </varray>
  </structure>
  <varray name="forces" >
   <v>      -0.12426598      -0.25500458       0.09329193 </v>
   <v>      -0.12247074       0.26391061       0.09268098 </v>
   <v>      -0.07805821       0.00205733      -0.05210525 </v>
   <v>      -0.43815360      -0.01043569      -0.00391969 </v>
   <v>       0.02056329      -0.74324573      -0.00692747 </v>
   <v>       0.02914355       0.73516681      -0.00551349 </v>
   <v>       0.62026773       0.00168175       0.06722213 </v>
   <v>      -0.00229174       0.08536189      -0.08556620 </v>
   <v>       0.00260766      -0.09243096      -0.08287610 </v>
   <v>      -0.02461859       0.00077038      -0.91864377 </v>
   <v>       0.00077036       0.00115124       0.91766525 </v>
   <v>      -0.06530749      -0.02729339      -0.35437687 </v>
   <v>       0.00251653       0.01410573       0.55198492 </v>
   <v>       0.05915255      -0.13182117      -0.65392506 </v>
   <v>      -0.03147204      -0.10053807       0.47942174 </v>
   <v>       0.05649564       0.12735427      -0.65527878 </v>
   <v>      -0.02779708       0.09609340       0.48024248 </v>
   <v>       0.02927513       0.08212154      -0.34239856 </v>
   <v>       0.03134134       0.08726924       0.34605526 </v>
   <v>      -0.00416212       0.00092320      -0.39505023 </v>
   <v>       0.07937348       0.00030157       0.52611340 </v>
   <v>      -0.05810717       0.02766015      -0.35868370 </v>
   <v>       0.00236671      -0.01242181       0.54979093 </v>
   <v>       0.01852721       0.00666854      -0.27577723 </v>
   <v>      -0.04380751       0.00650720       0.08936388 </v>
   <v>       0.02939592      -0.08018440      -0.34558486 </v>
   <v>       0.03871516      -0.08572907       0.34279435 </v>
  </varray>
  <varray name="stress" >
   <v>     -10.17292796       0.00313892       0.00708976 </v>
   <v>       0.00313885      -9.93318197       0.00202015 </v>
   <v>       0.00708974       0.00202012       6.45718022 </v>
  </varray>
  <energy>
   <i name="e_fr_energy">   -189.75308804 </i>
   <i name="e_wo_entrp">   -189.63467386 </i>
   <i name="e_0_energy">     -0.23682837 </i>
  </energy>
  <time name="totalsc">  355.10  356.02</time>
 </calculation>
 <calculation>
  <scstep>
   <time name="dav">   21.78   21.83</time>
   <time name="total">   22.31   22.36</time>
   <energy>
    <i name="alphaZ">     85.84256138 </i>
    <i name="ewald">  42845.45871250 </i>
    <i name="hartreedc"> -48862.14017369 </i>
    <i name="XCdc">   -232.93568711 </i>
    <i name="pawpsdc">   4038.56284545 </i>
    <i name="pawaedc">  -3454.26049132 </i>
    <i name="eentropy">     -0.20287968 </i>
    <i name="bandstr">  -1373.12965362 </i>
    <i name="atom">   6761.44252427 </i>
    <i name="e_fr_energy">   -191.36224180 </i>
    <i name="e_wo_entrp">   -191.15936213 </i>
    <i name="e_0_energy">   -191.26080196 </i>
   </energy>
  </scstep>
  <scstep>
   <time name="dav">   31.87   31.95</time>
   <time name="total">   32.39   32.48</time>
   <energy>
    <i name="e_fr_energy">   -191.16584452 </i>
    <i name="e_wo_entrp">   -190.97046406 </i>
    <i name="e_0_energy">   -191.06815429 </i>
   </energy>
  </scstep>
  <scstep>
   <time name="dav">   30.15   30.22</time>
   <time name="total">   30.67   30.75</time>
   <energy>
    <i name="e_fr_energy">   -191.30427439 </i>
    <i name="e_wo_entrp">   -191.07916389 </i>
    <i name="e_0_energy">   -191.19171914 </i>
   </energy>
  </scstep>
  <scstep>
   <time name="dav">   31.89   31.97</time>
   <time name="total">   32.42   32.50</time>
   <energy>
    <i name="e_fr_energy">   -190.90620087 </i>
    <i name="e_wo_entrp">   -190.70704788 </i>
    <i name="e_0_energy">   -190.80662438 </i>
   </energy>
  </scstep>
  <scstep>
   <time name="dav">   28.49   28.56</time>
   <time name="total">   29.01   29.09</time>
   <energy>
    <i name="e_fr_energy">   -190.78809787 </i>
    <i name="e_wo_entrp">   -190.58414989 </i>
    <i name="e_0_energy">   -190.68612388 </i>
   </energy>
  </scstep>
  <scstep>
   <time name="dav">   29.60   29.67</time>
   <time name="total">   30.12   30.20</time>
   <energy>
    <i name="e_fr_energy">   -190.78338097 </i>
    <i name="e_wo_entrp">   -190.57530677 </i>
    <i name="e_0_energy">   -190.67934387 </i>
   </energy>
  </scstep>
  <scstep>
   <time name="dav">   28.93   29.00</time>
   <time name="total">   29.46   29.53</time>
   <energy>
    <i name="e_fr_energy">   -190.77028190 </i>
    <i name="e_wo_entrp">   -190.56266084 </i>
    <i name="e_0_energy">   -190.66647137 </i>
   </energy>
  </scstep>
  <scstep>
   <time name="dav">   30.20   30.27</time>
   <time name="total">   30.72   30.80</time>
   <energy>
    <i name="e_fr_energy">   -190.76528088 </i>
    <i name="e_wo_entrp">   -190.55838669 </i>
    <i name="e_0_energy">   -190.66183378 </i>
   </energy>
  </scstep>
  <scstep>
   <time name="dav">   29.54   29.61</time>
   <time name="total">   30.06   30.14</time>
   <energy>
    <i name="e_fr_energy">   -190.76589238 </i>
    <i name="e_wo_entrp">   -190.55888619 </i>
    <i name="e_0_energy">   -190.66238928 </i>
   </energy>
  </scstep>
  <scstep>
   <time name="dav">   28.79   28.86</time>
   <time name="total">   29.31   29.39</time>
   <energy>
    <i name="e_fr_energy">   -190.76583271 </i>
    <i name="e_wo_entrp">   -190.55892394 </i>
    <i name="e_0_energy">   -190.66237833 </i>
   </energy>
  </scstep>
  <scstep>
   <time name="dav">   26.31   26.38</time>
   <time name="total">   26.84   26.91</time>
   <energy>
    <i name="e_fr_energy">   -190.76540882 </i>
    <i name="e_wo_entrp">   -190.55840834 </i>
    <i name="e_0_energy">   -190.66190858 </i>
   </energy>
  </scstep>
  <scstep>
   <time name="dav">   17.40   17.44</time>
   <time name="total">   17.44   17.49</time>
   <energy>
    <i name="alphaZ">     85.84256138 </i>
    <i name="ewald">  42845.45871250 </i>
    <i name="hartreedc"> -48833.46185492 </i>
    <i name="XCdc">   -234.27322284 </i>
    <i name="pawpsdc">   4064.64572907 </i>
    <i name="pawaedc">  -3480.54085970 </i>
    <i name="eentropy">     -0.20708236 </i>
    <i name="bandstr">  -1399.67191503 </i>
    <i name="atom">   6761.44252427 </i>
    <i name="e_fr_energy">   -190.76540761 </i>
    <i name="e_wo_entrp">   -190.55832526 </i>
    <i name="e_0_energy">   -190.66186644 </i>
   </energy>
  </scstep>
  <structure>
   <crystal>
    <varray name="basis" >
     <v>       8.48273647       4.90021808       0.00000000 </v>
     <v>      -8.48255997       4.89991290       0.00000000 </v>
     <v>       0.00000000       0.00000000      30.00000000 </v>
    </varray>
    <i name="volume">   2493.93190840 </i>
    <varray name="rec_basis" >
     <v>       0.05894202       0.10203839       0.00000000 </v>
     <v>      -0.05894569       0.10204051       0.00000000 </v>
     <v>       0.00000000       0.00000000       0.03333333 </v>
    </varray>
   </crystal>
   <varray name="positions" >
    <v>       0.66222040       0.33164913       0.00027690 </v>
    <v>       0.00178771       0.67119466       0.00027602 </v>
    <v>       0.66679027       0.66658739      -0.00018224 </v>
    <v>       0.32974579       0.00337875       0.00011583 </v>
    <v>       0.32628514       0.32454176      -0.00018664 </v>
    <v>       0.00873349       0.00690500      -0.00018373 </v>
    <v>       1.00402943       0.32929022       0.00011937 </v>
    <v>       0.33398395       0.66729349      -0.00007770 </v>
    <v>       0.66595600      -0.00077615      -0.00007264 </v>
    <v>       0.11047607       0.22269007       0.94803363 </v>
    <v>       0.22223370       0.11094009       0.05190763 </v>
    <v>       0.10834678       0.55752031       0.95091315 </v>
    <v>       0.22198843       0.44507240       0.05084129 </v>
    <v>       0.10789011       0.88293943       0.95004611 </v>
    <v>       0.21715960       0.77443258       0.04947340 </v>
    <v>       0.45013418       0.22522498       0.95003649 </v>
    <v>       0.55869094       0.11590880       0.04948225 </v>
    <v>       0.44920541       0.55850249       0.95094059 </v>
    <v>       0.56082991       0.44691692       0.04790802 </v>
    <v>       0.44471162       0.88846616       0.94963640 </v>
    <v>       0.55783815       0.77532500       0.04960982 </v>
    <v>       0.77568027       0.22477818       0.95090126 </v>
    <v>       0.88810123       0.11118480       0.05083539 </v>
    <v>       0.77764027       0.55559911       0.95329104 </v>
    <v>       0.88682524       0.44641315       0.04722769 </v>
    <v>       0.77466351       0.88394272       0.95093752 </v>
    <v>       0.88626687       0.77229301       0.04789308 </v>
   </varray>
  </structure>
  <varray name="forces" >
   <v>      -0.10190659      -0.25780385       0.05942034 </v>
   <v>      -0.10205289       0.25016409       0.05829144 </v>
   <v>      -0.14860021      -0.00345821      -0.00450656 </v>
   <v>      -0.35099993       0.00142330      -0.04525977 </v>
   <v>      -0.03878224      -0.74808125       0.02676864 </v>
   <v>      -0.04168912       0.74543127       0.02847512 </v>
   <v>       0.68666095      -0.00195003       0.03532104 </v>
   <v>      -0.01438872       0.15894678      -0.06117925 </v>
   <v>      -0.01830905      -0.16163745      -0.05909129 </v>
   <v>       0.04661536      -0.00052035      -0.79402650 </v>
   <v>       0.01054397       0.00057430       0.70401185 </v>
   <v>      -0.01307933      -0.05084324      -0.18576695 </v>
   <v>       0.07352646       0.02132613       0.35844841 </v>
   <v>      -0.03359013      -0.01023646      -0.46344155 </v>
   <v>      -0.04290756       0.00913601       0.35425489 </v>
   <v>      -0.03003468       0.01657866      -0.45070916 </v>
   <v>      -0.04740377      -0.00326185       0.34204504 </v>
   <v>       0.08494459      -0.05465480      -0.20768382 </v>
   <v>      -0.03448503      -0.05773403       0.22542226 </v>
   <v>      -0.10431664       0.00076255      -0.26871947 </v>
   <v>       0.05219416      -0.00074340       0.38295659 </v>
   <v>      -0.01747609       0.05260004      -0.17877098 </v>
   <v>       0.07520965      -0.01925184       0.35606171 </v>
   <v>       0.01485787      -0.00313444      -0.25240745 </v>
   <v>       0.04966078      -0.00251864       0.01548366 </v>
   <v>       0.08573518       0.05818433      -0.21077321 </v>
   <v>      -0.03992700       0.06070235       0.23537499 </v>
  </varray>
  <varray name="stress" >
   <v>      -5.81561461      -0.00341975       0.06440833 </v>
   <v>      -0.00341976      -5.54628792      -0.00010610 </v>
   <v>       0.06440850      -0.00010611       4.53643172 </v>
  </varray>
  <energy>
   <i name="e_fr_energy">   -190.76540761 </i>
   <i name="e_wo_entrp">   -190.66186644 </i>
   <i name="e_0_energy">     -0.20708236 </i>
  </energy>
  <time name="totalsc">  383.17  384.18</time>
 </calculation>
 <calculation>
  <scstep>
   <time name="dav">   21.78   21.83</time>
   <time name="total">   22.30   22.35</time>
   <energy>
    <i name="alphaZ">     90.10401887 </i>
    <i name="ewald">  44628.01335644 </i>
    <i name="hartreedc"> -50670.41240127 </i>
    <i name="XCdc">   -231.91868746 </i>
    <i name="pawpsdc">   4064.58916999 </i>
    <i name="pawaedc">  -3480.47983860 </i>
    <i name="eentropy">     -0.19606807 </i>
    <i name="bandstr">  -1353.22522896 </i>
    <i name="atom">   6761.44252427 </i>
    <i name="e_fr_energy">   -192.08315480 </i>
    <i name="e_wo_entrp">   -191.88708673 </i>
    <i name="e_0_energy">   -191.98512077 </i>
   </energy>
  </scstep>
  <scstep>
   <time name="dav">   28.08   28.15</time>
   <time name="total">   28.59   28.67</time>
   <energy>
    <i name="e_fr_energy">   -191.83710305 </i>
    <i name="e_wo_entrp">   -191.63901409 </i>
    <i name="e_0_energy">   -191.73805857 </i>
   </energy>
  </scstep>
  <scstep>
   <time name="dav">   29.17   29.24</time>
   <time name="total">   29.69   29.98</time>
   <energy>
    <i name="e_fr_energy">   -191.95753584 </i>
    <i name="e_wo_entrp">   -191.74641131 </i>
    <i name="e_0_energy">   -191.85197357 </i>
   </energy>
  </scstep>
  <scstep>
   <time name="dav">   27.71   27.78</time>
   <time name="total">   28.22   28.30</time>
   <energy>
    <i name="e_fr_energy">   -191.77379297 </i>
    <i name="e_wo_entrp">   -191.57316505 </i>
    <i name="e_0_energy">   -191.67347901 </i>
   </energy>
  </scstep>
  <scstep>
   <time name="dav">   30.85   30.92</time>
   <time name="total">   31.36   31.44</time>
   <energy>
    <i name="e_fr_energy">   -191.57174139 </i>
    <i name="e_wo_entrp">   -191.38506910 </i>
    <i name="e_0_energy">   -191.47840524 </i>
   </energy>
  </scstep>
  <scstep>
   <time name="dav">   30.42   30.50</time>
   <time name="total">   30.93   31.02</time>
   <energy>
    <i name="e_fr_energy">   -191.44234900 </i>
    <i name="e_wo_entrp">   -191.23790600 </i>
    <i name="e_0_energy">   -191.34012750 </i>
   </energy>
  </scstep>
  <scstep>
   <time name="dav">   30.23   30.31</time>
   <time name="total">   30.75   30.83</time>
   <energy>
    <i name="e_fr_energy">   -191.42519631 </i>
    <i name="e_wo_entrp">   -191.22175782 </i>
    <i name="e_0_energy">   -191.32347706 </i>
   </energy>
  </scstep>
  <scstep>
   <time name="dav">   26.98   27.04</time>
   <time name="total">   27.49   27.56</time>
   <energy>
    <i name="e_fr_energy">   -191.42033222 </i>
    <i name="e_wo_entrp">   -191.21728135 </i>
    <i name="e_0_energy">   -191.31880678 </i>
   </energy>
  </scstep>
  <scstep>
   <time name="dav">   30.31   30.39</time>
   <time name="total">   30.82   30.91</time>
   <energy>
    <i name="e_fr_energy">   -191.42107489 </i>
    <i name="e_wo_entrp">   -191.21777589 </i>
    <i name="e_0_energy">   -191.31942539 </i>
   </energy>
  </scstep>
  <scstep>
   <time name="dav">   29.65   29.72</time>
   <time name="total">   30.16   30.24</time>
   <energy>
    <i name="e_fr_energy">   -191.42076895 </i>
    <i name="e_wo_entrp">   -191.21720952 </i>
    <i name="e_0_energy">   -191.31898924 </i>
   </energy>
  </scstep>
  <scstep>
   <time name="dav">   26.22   26.29</time>
   <time name="total">   26.73   26.81</time>
   <energy>
    <i name="e_fr_energy">   -191.42043830 </i>
    <i name="e_wo_entrp">   -191.21671582 </i>
    <i name="e_0_energy">   -191.31857706 </i>
   </energy>
  </scstep>
  <scstep>
   <time name="dav">   18.59   18.63</time>
   <time name="total">   18.62   18.67</time>
   <energy>
    <i name="alphaZ">     90.10401887 </i>
    <i name="ewald">  44628.01335644 </i>
    <i name="hartreedc"> -50637.58754635 </i>
    <i name="XCdc">   -233.39960085 </i>
    <i name="pawpsdc">   4085.52924057 </i>
    <i name="pawaedc">  -3501.51254752 </i>
    <i name="eentropy">     -0.20378537 </i>
    <i name="bandstr">  -1383.80606849 </i>
    <i name="atom">   6761.44252427 </i>
    <i name="e_fr_energy">   -191.42040844 </i>
    <i name="e_wo_entrp">   -191.21662307 </i>
    <i name="e_0_energy">   -191.31851575 </i>
   </energy>
  </scstep>
  <structure>
   <crystal>
    <varray name="basis" >
     <v>       8.27329532       4.78652356       0.00000000 </v>
     <v>      -8.27322976       4.78640981       0.00000000 </v>
     <v>       0.00000000       0.00000000      30.00000000 </v>
    </varray>
    <i name="volume">   2375.98173341 </i>
    <varray name="rec_basis" >
     <v>       0.06043493       0.10446077       0.00000000 </v>
     <v>      -0.06043637       0.10446160       0.00000000 </v>
     <v>       0.00000000       0.00000000       0.03333333 </v>
    </varray>
   </crystal>
   <varray name="positions" >
    <v>       0.65835146       0.32907897       0.00053015 </v>
    <v>       0.00432198       0.67502272       0.00052546 </v>
    <v>       0.66563317       0.66769482      -0.00021266 </v>
    <v>       0.32721763       0.00583531      -0.00006380 </v>
    <v>       0.31660189       0.31554076      -0.00007413 </v>
    <v>       0.01767983       0.01652054      -0.00006403 </v>
    <v>       1.00889131       0.32440755       0.00028775 </v>
    <v>       0.33577649       0.66927539      -0.00035174 </v>
    <v>       0.66390968      -0.00262125      -0.00033714 </v>
    <v>       0.11088601       0.22227420       0.94422190 </v>
    <v>       0.22229597       0.11089786       0.05537308 </v>
    <v>       0.10733393       0.55730530       0.94960375 </v>
    <v>       0.22286496       0.44474009       0.05291079 </v>
    <v>       0.10730025       0.88251526       0.94761598 </v>
    <v>       0.21642999       0.77470744       0.05143399 </v>
    <v>       0.45061829       0.22584612       0.94764746 </v>
    <v>       0.55844117       0.11670026       0.05140331 </v>
    <v>       0.44965639       0.55741825       0.94957532 </v>
    <v>       0.56033509       0.44673453       0.04929470 </v>
    <v>       0.44392214       0.88927846       0.94797343 </v>
    <v>       0.55848567       0.77466489       0.05171865 </v>
    <v>       0.77590658       0.22582062       0.94961015 </v>
    <v>       0.88846959       0.11032679       0.05289387 </v>
    <v>       0.77776688       0.55546778       0.95186924 </v>
    <v>       0.88685033       0.44639218       0.04774838 </v>
    <v>       0.77579585       0.88353175       0.94955817 </v>
    <v>       0.88647191       0.77283784       0.04930787 </v>
   </varray>
  </structure>
  <varray name="forces" >
   <v>      -0.14623337      -0.20356366      -0.01041599 </v>
   <v>      -0.14866657       0.19986253      -0.00989937 </v>
   <v>      -0.10029174       0.00115952      -0.02038869 </v>
   <v>       0.04776198      -0.00080850       0.04325423 </v>
   <v>      -0.01824377      -0.06924038       0.01726972 </v>
   <v>      -0.02004022       0.06759559       0.00760073 </v>
   <v>       0.36932894      -0.00019012      -0.10094104 </v>
   <v>      -0.07142036       0.27682147      -0.00014990 </v>
   <v>      -0.06764201      -0.27996819      -0.00806720 </v>
   <v>       0.04800844      -0.00126698      -0.31756767 </v>
   <v>       0.06060717       0.00131180       0.21604006 </v>
   <v>       0.08412267      -0.06105773       0.12249976 </v>
   <v>       0.12332258       0.03528401       0.02303072 </v>
   <v>      -0.14811703       0.09564526      -0.06305377 </v>
   <v>       0.00258526       0.11524936       0.03911030 </v>
   <v>      -0.14725621      -0.09269048      -0.06732918 </v>
   <v>       0.00059741      -0.11203381       0.04319139 </v>
   <v>       0.07912061      -0.21103145       0.10597163 </v>
   <v>      -0.13926204      -0.21998502      -0.03914950 </v>
   <v>      -0.16301859      -0.00003900      -0.11012779 </v>
   <v>      -0.03121544       0.00014954       0.10466939 </v>
   <v>       0.08195108       0.06128834       0.12401680 </v>
   <v>       0.12258017      -0.03492825       0.02611061 </v>
   <v>      -0.00914521       0.00006035       0.01621885 </v>
   <v>       0.25314184       0.00078525      -0.21232428 </v>
   <v>       0.07646364       0.21037042       0.10942511 </v>
   <v>      -0.13903923       0.22122011      -0.03899489 </v>
  </varray>
  <varray name="stress" >
   <v>      -0.17926588       0.00661403       0.37694619 </v>
   <v>       0.00661393       0.51905908       0.00603596 </v>
   <v>       0.37694619       0.00603574      -0.82513913 </v>
  </varray>
  <energy>
   <i name="e_fr_energy">   -191.42040844 </i>
   <i name="e_wo_entrp">   -191.31851575 </i>
   <i name="e_0_energy">     -0.20378537 </i>
  </energy>
  <time name="totalsc">  378.10  379.31</time>
 </calculation>
 <calculation>
  <scstep>
   <time name="dav">   21.75   21.80</time>
   <time name="total">   22.26   22.32</time>
   <energy>
    <i name="alphaZ">     90.01701404 </i>
    <i name="ewald">  44574.12758324 </i>
    <i name="hartreedc"> -50583.55976834 </i>
    <i name="XCdc">   -233.52101792 </i>
    <i name="pawpsdc">   4085.32559030 </i>
    <i name="pawaedc">  -3501.30233570 </i>
    <i name="eentropy">     -0.20622520 </i>
    <i name="bandstr">  -1383.78755115 </i>
    <i name="atom">   6761.44252427 </i>
    <i name="e_fr_energy">   -191.46418645 </i>
    <i name="e_wo_entrp">   -191.25796126 </i>
    <i name="e_0_energy">   -191.36107386 </i>
   </energy>
  </scstep>
  <scstep>
   <time name="dav">   33.02   33.10</time>
   <time name="total">   33.53   33.62</time>
   <energy>
    <i name="e_fr_energy">   -191.50214995 </i>
    <i name="e_wo_entrp">   -191.28760053 </i>
    <i name="e_0_energy">   -191.39487524 </i>
   </energy>
  </scstep>
  <scstep>
   <time name="dav">   30.68   30.76</time>
   <time name="total">   31.19   31.28</time>
   <energy>
    <i name="e_fr_energy">   -191.47592660 </i>
    <i name="e_wo_entrp">   -191.26942828 </i>
    <i name="e_0_energy">   -191.37267744 </i>
   </energy>
  </scstep>
  <scstep>
   <time name="dav">   28.04   28.11</time>
   <time name="total">   28.55   28.63</time>
   <energy>
    <i name="e_fr_energy">   -191.47702629 </i>
    <i name="e_wo_entrp">   -191.27069139 </i>
    <i name="e_0_energy">   -191.37385884 </i>
   </energy>
  </scstep>
  <scstep>
   <time name="dav">   26.41   26.47</time>
   <time name="total">   26.92   27.00</time>
   <energy>
    <i name="e_fr_energy">   -191.47391495 </i>
    <i name="e_wo_entrp">   -191.26596321 </i>
    <i name="e_0_energy">   -191.36993908 </i>
   </energy>
  </scstep>
  <scstep>
   <time name="dav">   27.74   27.80</time>
   <time name="total">   28.24   28.32</time>
   <energy>
    <i name="e_fr_energy">   -191.47381348 </i>
    <i name="e_wo_entrp">   -191.26656997 </i>
    <i name="e_0_energy">   -191.37019173 </i>
   </energy>
  </scstep>
  <scstep>
   <time name="dav">   25.79   25.85</time>
   <time name="total">   26.30   26.37</time>
   <energy>
    <i name="e_fr_energy">   -191.47354658 </i>
    <i name="e_wo_entrp">   -191.26624144 </i>
    <i name="e_0_energy">   -191.36989401 </i>
   </energy>
  </scstep>
  <scstep>
   <time name="dav">   18.81   18.85</time>
   <time name="total">   18.84   18.90</time>
   <energy>
    <i name="alphaZ">     90.01701404 </i>
    <i name="ewald">  44574.12758324 </i>
    <i name="hartreedc"> -50585.14964050 </i>
    <i name="XCdc">   -233.47643799 </i>
    <i name="pawpsdc">   4082.18322953 </i>
    <i name="pawaedc">  -3498.11916422 </i>
    <i name="eentropy">     -0.20732854 </i>
    <i name="bandstr">  -1382.29133907 </i>
    <i name="atom">   6761.44252427 </i>
    <i name="e_fr_energy">   -191.47355923 </i>
    <i name="e_wo_entrp">   -191.26623069 </i>
    <i name="e_0_energy">   -191.36989496 </i>
   </energy>
  </scstep>
  <structure>
   <crystal>
    <varray name="basis" >
     <v>       8.26977148       4.79338434       0.00000000 </v>
     <v>      -8.26953883       4.79298158       0.00000000 </v>
     <v>       0.00000000       0.00000000      30.00000000 </v>
    </varray>
    <i name="volume">   2378.27820911 </i>
    <varray name="rec_basis" >
     <v>       0.06045947       0.10431335       0.00000000 </v>
     <v>      -0.06046455       0.10431628       0.00000000 </v>
     <v>       0.00000000       0.00000000       0.03333333 </v>
    </varray>
   </crystal>
   <varray name="positions" >
    <v>       0.65691520       0.32848875       0.00051281 </v>
    <v>       0.00488655       0.67644751       0.00050895 </v>
    <v>       0.66535087       0.66798884      -0.00024521 </v>
    <v>       0.32735875       0.00568644       0.00000592 </v>
    <v>       0.31622643       0.31526927      -0.00004677 </v>
    <v>       0.01793799       0.01689324      -0.00005217 </v>
    <v>       1.00995022       0.32334671       0.00012564 </v>
    <v>       0.33695381       0.67086697      -0.00035123 </v>
    <v>       0.66231347      -0.00382512      -0.00034934 </v>
    <v>       0.11101785       0.22212965       0.94372412 </v>
    <v>       0.22247839       0.11072855       0.05570913 </v>
    <v>       0.10727483       0.55675468       0.94980419 </v>
    <v>       0.22339766       0.44456008       0.05294134 </v>
    <v>       0.10735207       0.88342723       0.94752215 </v>
    <v>       0.21701860       0.77527782       0.05149072 </v>
    <v>       0.44972358       0.22580659       0.94754669 </v>
    <v>       0.55788113       0.11613347       0.05146666 </v>
    <v>       0.44882508       0.55613198       0.94974938 </v>
    <v>       0.55882735       0.44603491       0.04922767 </v>
    <v>       0.44345077       0.88974938       0.94780230 </v>
    <v>       0.55839366       0.77475842       0.05187993 </v>
    <v>       0.77645198       0.22588714       0.94981299 </v>
    <v>       0.88864914       0.10979796       0.05292938 </v>
    <v>       0.77774021       0.55549494       0.95189952 </v>
    <v>       0.88758963       0.44566062       0.04740629 </v>
    <v>       0.77707095       0.88436735       0.94973779 </v>
    <v>       0.88717827       0.77435107       0.04924104 </v>
   </varray>
  </structure>
  <varray name="forces" >
   <v>      -0.18905761      -0.20429912      -0.00047245 </v>
   <v>      -0.18958647       0.19450475      -0.00093940 </v>
   <v>      -0.06111184      -0.00161692      -0.04468243 </v>
   <v>       0.05730100       0.00563378       0.03958240 </v>
   <v>       0.02762595      -0.21344937       0.02078328 </v>
   <v>       0.02321050       0.21360036       0.02506248 </v>
   <v>       0.38463735      -0.00072795       0.00757023 </v>
   <v>      -0.09478313       0.29701181      -0.00583381 </v>
   <v>      -0.09725195      -0.29776510      -0.00520185 </v>
   <v>       0.08587188       0.00119800      -0.19391917 </v>
   <v>       0.03028167      -0.00121304       0.08012363 </v>
   <v>       0.06405995      -0.01736470       0.13119588 </v>
   <v>       0.04550871       0.03263202      -0.04590533 </v>
   <v>      -0.06553578       0.06268901      -0.05069853 </v>
   <v>       0.00248148       0.06186211       0.04111924 </v>
   <v>      -0.06513291      -0.05918257      -0.04954535 </v>
   <v>       0.00127329      -0.05890680       0.04033548 </v>
   <v>       0.03403272      -0.10508410       0.10241766 </v>
   <v>      -0.08546015      -0.11667830      -0.02475708 </v>
   <v>      -0.08697242      -0.00041092      -0.13343139 </v>
   <v>      -0.02213941       0.00056816       0.10208832 </v>
   <v>       0.06108088       0.01865267       0.13263901 </v>
   <v>       0.04577627      -0.03258341      -0.04757157 </v>
   <v>      -0.00985335      -0.00098305       0.06428533 </v>
   <v>       0.15796720      -0.00122308      -0.26151306 </v>
   <v>       0.03332139       0.10510212       0.10053572 </v>
   <v>      -0.08754521       0.11803363      -0.02326722 </v>
  </varray>
  <varray name="stress" >
   <v>      -0.06473370      -0.00451292       0.02510323 </v>
   <v>      -0.00451287      -0.20908135      -0.00378562 </v>
   <v>       0.02510328      -0.00378562      -1.49271248 </v>
  </varray>
  <energy>
   <i name="e_fr_energy">   -191.47355923 </i>
   <i name="e_wo_entrp">   -191.36989496 </i>
   <i name="e_0_energy">     -0.20732854 </i>
  </energy>
  <time name="totalsc">  258.01  258.68</time>
 </calculation>
 <calculation>
  <scstep>
   <time name="dav">   21.78   21.83</time>
   <time name="total">   22.29   22.34</time>
   <energy>
    <i name="alphaZ">     90.11176473 </i>
    <i name="ewald">  44624.99982214 </i>
    <i name="hartreedc"> -50636.71723831 </i>
    <i name="XCdc">   -233.38410284 </i>
    <i name="pawpsdc">   4082.10300532 </i>
    <i name="pawaedc">  -3498.03809267 </i>
    <i name="eentropy">     -0.20897157 </i>
    <i name="bandstr">  -1381.82707960 </i>
    <i name="atom">   6761.44252427 </i>
    <i name="e_fr_energy">   -191.51836852 </i>
    <i name="e_wo_entrp">   -191.30939695 </i>
    <i name="e_0_energy">   -191.41388274 </i>
   </energy>
  </scstep>
  <scstep>
   <time name="dav">   32.87   32.95</time>
   <time name="total">   33.38   33.47</time>
   <energy>
    <i name="e_fr_energy">   -191.53800089 </i>
    <i name="e_wo_entrp">   -191.32148491 </i>
    <i name="e_0_energy">   -191.42974290 </i>
   </energy>
  </scstep>
  <scstep>
   <time name="dav">   30.44   30.51</time>
   <time name="total">   30.95   31.03</time>
   <energy>
    <i name="e_fr_energy">   -191.52554600 </i>
    <i name="e_wo_entrp">   -191.31700200 </i>
    <i name="e_0_energy">   -191.42127400 </i>
   </energy>
  </scstep>
  <scstep>
   <time name="dav">   28.48   28.55</time>
   <time name="total">   28.99   29.07</time>
   <energy>
    <i name="e_fr_energy">   -191.52541069 </i>
    <i name="e_wo_entrp">   -191.31640959 </i>
    <i name="e_0_energy">   -191.42091014 </i>
   </energy>
  </scstep>
  <scstep>
   <time name="dav">   26.86   26.92</time>
   <time name="total">   27.37   27.44</time>
   <energy>
    <i name="e_fr_energy">   -191.52329613 </i>
    <i name="e_wo_entrp">   -191.31276686 </i>
    <i name="e_0_energy">   -191.41803150 </i>
   </energy>
  </scstep>
  <scstep>
   <time name="dav">   26.39   26.45</time>
   <time name="total">   26.89   26.97</time>
   <energy>
    <i name="e_fr_energy">   -191.52302724 </i>
    <i name="e_wo_entrp">   -191.31305069 </i>
    <i name="e_0_energy">   -191.41803896 </i>
   </energy>
  </scstep>
  <scstep>
   <time name="dav">   25.98   26.04</time>
   <time name="total">   26.02   26.09</time>
   <energy>
    <i name="alphaZ">     90.11176473 </i>
    <i name="ewald">  44624.99982214 </i>
    <i name="hartreedc"> -50636.56637676 </i>
    <i name="XCdc">   -233.39968276 </i>
    <i name="pawpsdc">   4085.24250313 </i>
    <i name="pawaedc">  -3501.22226475 </i>
    <i name="eentropy">     -0.21027676 </i>
    <i name="bandstr">  -1381.92095670 </i>
    <i name="atom">   6761.44252427 </i>
    <i name="e_fr_energy">   -191.52294345 </i>
    <i name="e_wo_entrp">   -191.31266669 </i>
    <i name="e_0_energy">   -191.41780507 </i>
   </energy>
  </scstep>
  <structure>
   <crystal>
    <varray name="basis" >
     <v>       8.26680633       4.78992744       0.00000000 </v>
     <v>      -8.26669026       4.78972594       0.00000000 </v>
[...]
      <set comment="kpoint 31">
       <r>  -17.4905    1.0000 </r>
       <r>  -17.2642    1.0000 </r>
       <r>  -16.8959    1.0000 </r>
       <r>  -16.5607    1.0000 </r>
       <r>  -16.4733    1.0000 </r>
       <r>  -16.4131    1.0000 </r>
       <r>  -16.2441    1.0000 </r>
       <r>  -16.1720    1.0000 </r>
       <r>  -16.1320    1.0000 </r>
       <r>  -16.0508    1.0000 </r>
       <r>  -15.9795    1.0000 </r>
       <r>  -15.8443    1.0000 </r>
       <r>  -15.7587    1.0000 </r>
       <r>  -15.7232    1.0000 </r>
       <r>  -15.6535    1.0000 </r>
       <r>  -15.5470    1.0000 </r>
       <r>  -15.4252    1.0000 </r>
       <r>  -15.3476    1.0000 </r>
       <r>   -9.7259    1.0000 </r>
       <r>   -9.4107    1.0000 </r>
       <r>   -9.2910    1.0000 </r>
       <r>   -8.9601    1.0000 </r>
       <r>   -8.8395    1.0000 </r>
       <r>   -8.7296    1.0000 </r>
       <r>   -8.5484    1.0000 </r>
       <r>   -8.5219    1.0000 </r>
       <r>   -8.4063    1.0000 </r>
       <r>   -8.3435    1.0000 </r>
       <r>   -8.2303    1.0000 </r>
       <r>   -8.1799    1.0000 </r>
       <r>   -8.0898    1.0000 </r>
       <r>   -8.0605    1.0000 </r>
       <r>   -7.9888    1.0000 </r>
       <r>   -7.9274    1.0000 </r>
       <r>   -7.7879    1.0000 </r>
       <r>   -7.7122    1.0000 </r>
       <r>   -7.5695    1.0000 </r>
       <r>   -7.4056    1.0000 </r>
       <r>   -7.2712    1.0000 </r>
       <r>   -7.1879    1.0000 </r>
       <r>   -7.1351    1.0000 </r>
       <r>   -7.0457    1.0000 </r>
       <r>   -7.0129    1.0000 </r>
       <r>   -6.9620    1.0000 </r>
       <r>   -6.8883    1.0000 </r>
       <r>   -6.7949    1.0000 </r>
       <r>   -6.7042    1.0000 </r>
       <r>   -6.6551    1.0000 </r>
       <r>   -6.5413    1.0000 </r>
       <r>   -6.4449    1.0000 </r>
       <r>   -6.3948    1.0000 </r>
       <r>   -6.3624    1.0000 </r>
       <r>   -6.2976    1.0000 </r>
       <r>   -6.1852    1.0000 </r>
       <r>   -6.1053    1.0000 </r>
       <r>   -6.0769    1.0000 </r>
       <r>   -6.0344    1.0000 </r>
       <r>   -5.9596    1.0000 </r>
       <r>   -5.8906    1.0000 </r>
       <r>   -5.8046    1.0000 </r>
       <r>   -5.7332    1.0000 </r>
       <r>   -5.6274    1.0000 </r>
       <r>   -5.5396    1.0000 </r>
       <r>   -5.4604    1.0000 </r>
       <r>   -5.2964    1.0000 </r>
       <r>   -5.1473    1.0000 </r>
       <r>   -5.0883    1.0000 </r>
       <r>   -4.9384    1.0000 </r>
       <r>   -4.8369    1.0000 </r>
       <r>   -4.7117    1.0000 </r>
       <r>   -4.5710    1.0000 </r>
       <r>   -4.3881    1.0000 </r>
       <r>   -4.3226    1.0000 </r>
       <r>   -4.2532    1.0000 </r>
       <r>   -4.1184    1.0000 </r>
       <r>   -3.9861    1.0000 </r>
       <r>   -3.8397    0.9999 </r>
       <r>   -3.6134    0.9887 </r>
       <r>   -3.5596    0.9713 </r>
       <r>   -3.2062    0.2749 </r>
       <r>   -3.0520    0.0457 </r>
       <r>   -2.8768    0.0017 </r>
       <r>   -2.8216    0.0005 </r>
       <r>   -2.6518    0.0000 </r>
       <r>   -2.5046    0.0000 </r>
       <r>   -2.3641    0.0000 </r>
       <r>   -2.2660    0.0000 </r>
       <r>   -2.1814    0.0000 </r>
       <r>   -2.0489    0.0000 </r>
       <r>   -2.0062    0.0000 </r>
       <r>   -1.8523    0.0000 </r>
       <r>   -1.6349    0.0000 </r>
       <r>   -1.5124    0.0000 </r>
       <r>   -1.3973    0.0000 </r>
       <r>   -1.3211    0.0000 </r>
       <r>   -1.1833    0.0000 </r>
       <r>   -1.0970    0.0000 </r>
       <r>   -1.0851    0.0000 </r>
       <r>   -0.9585    0.0000 </r>
       <r>   -0.9248    0.0000 </r>
       <r>   -0.8578    0.0000 </r>
       <r>   -0.7766    0.0000 </r>
       <r>   -0.5850    0.0000 </r>
       <r>   -0.5465    0.0000 </r>
       <r>   -0.4054    0.0000 </r>
       <r>   -0.3992    0.0000 </r>
       <r>   -0.2703    0.0000 </r>
       <r>   -0.1345    0.0000 </r>
       <r>    0.0252    0.0000 </r>
       <r>    0.2272    0.0000 </r>
       <r>    0.4245    0.0000 </r>
       <r>    0.5131    0.0000 </r>
       <r>    0.7943    0.0000 </r>
       <r>    0.8991    0.0000 </r>
       <r>    1.1007    0.0000 </r>
       <r>    1.2168    0.0000 </r>
       <r>    1.3228    0.0000 </r>
       <r>    2.1280    0.0000 </r>
       <r>    2.2880    0.0000 </r>
       <r>    2.3817    0.0000 </r>
      </set>
      <set comment="kpoint 32">
       <r>  -17.5137    1.0000 </r>
       <r>  -17.1460    1.0000 </r>
       <r>  -17.0427    1.0000 </r>
       <r>  -16.5396    1.0000 </r>
       <r>  -16.4675    1.0000 </r>
       <r>  -16.3132    1.0000 </r>
       <r>  -16.2713    1.0000 </r>
       <r>  -16.1921    1.0000 </r>
       <r>  -16.1481    1.0000 </r>
       <r>  -16.0347    1.0000 </r>
       <r>  -15.9972    1.0000 </r>
       <r>  -15.8785    1.0000 </r>
       <r>  -15.7887    1.0000 </r>
       <r>  -15.7090    1.0000 </r>
       <r>  -15.6277    1.0000 </r>
       <r>  -15.5279    1.0000 </r>
       <r>  -15.4329    1.0000 </r>
       <r>  -15.3424    1.0000 </r>
       <r>   -9.6397    1.0000 </r>
       <r>   -9.5823    1.0000 </r>
       <r>   -9.3285    1.0000 </r>
       <r>   -8.9297    1.0000 </r>
       <r>   -8.7578    1.0000 </r>
       <r>   -8.6024    1.0000 </r>
       <r>   -8.5511    1.0000 </r>
       <r>   -8.4880    1.0000 </r>
       <r>   -8.4050    1.0000 </r>
       <r>   -8.3410    1.0000 </r>
       <r>   -8.2790    1.0000 </r>
       <r>   -8.2086    1.0000 </r>
       <r>   -8.1331    1.0000 </r>
       <r>   -8.0798    1.0000 </r>
       <r>   -8.0283    1.0000 </r>
       <r>   -7.9523    1.0000 </r>
       <r>   -7.8146    1.0000 </r>
       <r>   -7.6559    1.0000 </r>
       <r>   -7.5266    1.0000 </r>
       <r>   -7.4312    1.0000 </r>
       <r>   -7.3124    1.0000 </r>
       <r>   -7.2488    1.0000 </r>
       <r>   -7.1660    1.0000 </r>
       <r>   -7.0596    1.0000 </r>
       <r>   -7.0018    1.0000 </r>
       <r>   -6.8762    1.0000 </r>
       <r>   -6.8432    1.0000 </r>
       <r>   -6.8097    1.0000 </r>
       <r>   -6.6979    1.0000 </r>
       <r>   -6.6267    1.0000 </r>
       <r>   -6.5741    1.0000 </r>
       <r>   -6.4620    1.0000 </r>
       <r>   -6.4031    1.0000 </r>
       <r>   -6.3382    1.0000 </r>
       <r>   -6.3049    1.0000 </r>
       <r>   -6.2122    1.0000 </r>
       <r>   -6.1505    1.0000 </r>
       <r>   -6.0688    1.0000 </r>
       <r>   -5.9802    1.0000 </r>
       <r>   -5.9364    1.0000 </r>
       <r>   -5.8744    1.0000 </r>
       <r>   -5.7383    1.0000 </r>
       <r>   -5.6709    1.0000 </r>
       <r>   -5.5704    1.0000 </r>
       <r>   -5.4920    1.0000 </r>
       <r>   -5.3829    1.0000 </r>
       <r>   -5.3485    1.0000 </r>
       <r>   -5.2591    1.0000 </r>
       <r>   -5.1657    1.0000 </r>
       <r>   -5.0239    1.0000 </r>
       <r>   -4.8499    1.0000 </r>
       <r>   -4.6607    1.0000 </r>
       <r>   -4.5491    1.0000 </r>
       <r>   -4.4605    1.0000 </r>
       <r>   -4.3267    1.0000 </r>
       <r>   -4.2815    1.0000 </r>
       <r>   -4.1050    1.0000 </r>
       <r>   -4.0256    1.0000 </r>
       <r>   -3.8253    0.9999 </r>
       <r>   -3.5462    0.9646 </r>
       <r>   -3.4835    0.9135 </r>
       <r>   -3.2649    0.4273 </r>
       <r>   -3.0914    0.0793 </r>
       <r>   -2.8531    0.0010 </r>
       <r>   -2.7888    0.0002 </r>
       <r>   -2.6682    0.0000 </r>
       <r>   -2.5105    0.0000 </r>
       <r>   -2.3862    0.0000 </r>
       <r>   -2.2300    0.0000 </r>
       <r>   -2.1842    0.0000 </r>
       <r>   -2.0979    0.0000 </r>
       <r>   -2.0276    0.0000 </r>
       <r>   -1.8595    0.0000 </r>
       <r>   -1.6225    0.0000 </r>
       <r>   -1.5006    0.0000 </r>
       <r>   -1.4021    0.0000 </r>
       <r>   -1.3127    0.0000 </r>
       <r>   -1.1874    0.0000 </r>
       <r>   -1.1385    0.0000 </r>
       <r>   -1.0717    0.0000 </r>
       <r>   -0.9675    0.0000 </r>
       <r>   -0.9080    0.0000 </r>
       <r>   -0.8628    0.0000 </r>
       <r>   -0.7713    0.0000 </r>
       <r>   -0.5996    0.0000 </r>
       <r>   -0.4835    0.0000 </r>
       <r>   -0.4416    0.0000 </r>
       <r>   -0.3650    0.0000 </r>
       <r>   -0.2421    0.0000 </r>
       <r>   -0.1032    0.0000 </r>
       <r>    0.0469    0.0000 </r>
       <r>    0.1572    0.0000 </r>
       <r>    0.4022    0.0000 </r>
       <r>    0.4985    0.0000 </r>
       <r>    0.8510    0.0000 </r>
       <r>    0.9057    0.0000 </r>
       <r>    1.1096    0.0000 </r>
       <r>    1.1845    0.0000 </r>
       <r>    1.3019    0.0000 </r>
       <r>    2.1001    0.0000 </r>
       <r>    2.2537    0.0000 </r>
       <r>    2.5545    0.0000 </r>
      </set>
      <set comment="kpoint 33">
       <r>  -17.5079    1.0000 </r>
       <r>  -17.2169    1.0000 </r>
       <r>  -16.9213    1.0000 </r>
       <r>  -16.5513    1.0000 </r>
       <r>  -16.4974    1.0000 </r>
       <r>  -16.4452    1.0000 </r>
       <r>  -16.2328    1.0000 </r>
       <r>  -16.1795    1.0000 </r>
       <r>  -16.1088    1.0000 </r>
       <r>  -16.0395    1.0000 </r>
       <r>  -15.9558    1.0000 </r>
       <r>  -15.8573    1.0000 </r>
       <r>  -15.8153    1.0000 </r>
       <r>  -15.6994    1.0000 </r>
       <r>  -15.6386    1.0000 </r>
       <r>  -15.5049    1.0000 </r>
       <r>  -15.4436    1.0000 </r>
       <r>  -15.3558    1.0000 </r>
       <r>   -9.7317    1.0000 </r>
       <r>   -9.4651    1.0000 </r>
       <r>   -9.2526    1.0000 </r>
       <r>   -8.9799    1.0000 </r>
       <r>   -8.8338    1.0000 </r>
       <r>   -8.6960    1.0000 </r>
       <r>   -8.6051    1.0000 </r>
       <r>   -8.5090    1.0000 </r>
       <r>   -8.4171    1.0000 </r>
       <r>   -8.3336    1.0000 </r>
       <r>   -8.3025    1.0000 </r>
       <r>   -8.1843    1.0000 </r>
       <r>   -8.0569    1.0000 </r>
       <r>   -8.0066    1.0000 </r>
       <r>   -7.9392    1.0000 </r>
       <r>   -7.8807    1.0000 </r>
       <r>   -7.8124    1.0000 </r>
       <r>   -7.6515    1.0000 </r>
       <r>   -7.5870    1.0000 </r>
       <r>   -7.5397    1.0000 </r>
       <r>   -7.3266    1.0000 </r>
       <r>   -7.2809    1.0000 </r>
       <r>   -7.0935    1.0000 </r>
       <r>   -6.9916    1.0000 </r>
       <r>   -6.9434    1.0000 </r>
       <r>   -6.9074    1.0000 </r>
       <r>   -6.8443    1.0000 </r>
       <r>   -6.7797    1.0000 </r>
       <r>   -6.6952    1.0000 </r>
       <r>   -6.6297    1.0000 </r>
       <r>   -6.5816    1.0000 </r>
       <r>   -6.5032    1.0000 </r>
       <r>   -6.4376    1.0000 </r>
       <r>   -6.3484    1.0000 </r>
       <r>   -6.2731    1.0000 </r>
       <r>   -6.2135    1.0000 </r>
       <r>   -6.1181    1.0000 </r>
       <r>   -6.0509    1.0000 </r>
       <r>   -5.9876    1.0000 </r>
       <r>   -5.9407    1.0000 </r>
       <r>   -5.8631    1.0000 </r>
       <r>   -5.8344    1.0000 </r>
       <r>   -5.7010    1.0000 </r>
       <r>   -5.6422    1.0000 </r>
       <r>   -5.5136    1.0000 </r>
       <r>   -5.4123    1.0000 </r>
       <r>   -5.3404    1.0000 </r>
       <r>   -5.1632    1.0000 </r>
       <r>   -5.0830    1.0000 </r>
       <r>   -5.0112    1.0000 </r>
       <r>   -4.8076    1.0000 </r>
       <r>   -4.6736    1.0000 </r>
       <r>   -4.5899    1.0000 </r>
       <r>   -4.4412    1.0000 </r>
       <r>   -4.3202    1.0000 </r>
       <r>   -4.2725    1.0000 </r>
       <r>   -4.1243    1.0000 </r>
       <r>   -4.0638    1.0000 </r>
       <r>   -3.8338    0.9999 </r>
       <r>   -3.5117    0.9409 </r>
       <r>   -3.4404    0.8550 </r>
       <r>   -3.3501    0.6625 </r>
       <r>   -3.1117    0.1027 </r>
       <r>   -2.8718    0.0015 </r>
       <r>   -2.7446    0.0001 </r>
       <r>   -2.6212    0.0000 </r>
       <r>   -2.5270    0.0000 </r>
       <r>   -2.4347    0.0000 </r>
       <r>   -2.2032    0.0000 </r>
       <r>   -2.1760    0.0000 </r>
       <r>   -2.1288    0.0000 </r>
       <r>   -2.0540    0.0000 </r>
       <r>   -1.8405    0.0000 </r>
       <r>   -1.6027    0.0000 </r>
       <r>   -1.4895    0.0000 </r>
       <r>   -1.3985    0.0000 </r>
       <r>   -1.3236    0.0000 </r>
       <r>   -1.2319    0.0000 </r>
       <r>   -1.1575    0.0000 </r>
       <r>   -1.0849    0.0000 </r>
       <r>   -0.9242    0.0000 </r>
       <r>   -0.8979    0.0000 </r>
       <r>   -0.8515    0.0000 </r>
       <r>   -0.7569    0.0000 </r>
       <r>   -0.6329    0.0000 </r>
       <r>   -0.5523    0.0000 </r>
       <r>   -0.4294    0.0000 </r>
       <r>   -0.3614    0.0000 </r>
       <r>   -0.1944    0.0000 </r>
       <r>   -0.0447    0.0000 </r>
       <r>    0.0331    0.0000 </r>
       <r>    0.1536    0.0000 </r>
       <r>    0.3269    0.0000 </r>
       <r>    0.5448    0.0000 </r>
       <r>    0.7993    0.0000 </r>
       <r>    0.9663    0.0000 </r>
       <r>    1.1462    0.0000 </r>
       <r>    1.2182    0.0000 </r>
       <r>    1.2945    0.0000 </r>
       <r>    2.1337    0.0000 </r>
       <r>    2.2795    0.0000 </r>
       <r>    2.4010    0.0000 </r>
      </set>
      <set comment="kpoint 34">
       <r>  -17.4962    1.0000 </r>
       <r>  -17.2688    1.0000 </r>
       <r>  -16.7296    1.0000 </r>
       <r>  -16.7133    1.0000 </r>
       <r>  -16.5020    1.0000 </r>
       <r>  -16.4846    1.0000 </r>
       <r>  -16.2007    1.0000 </r>
       <r>  -16.1720    1.0000 </r>
       <r>  -16.1429    1.0000 </r>
       <r>  -16.0162    1.0000 </r>
       <r>  -15.9301    1.0000 </r>
       <r>  -15.8419    1.0000 </r>
       <r>  -15.8087    1.0000 </r>
       <r>  -15.6828    1.0000 </r>
       <r>  -15.6697    1.0000 </r>
       <r>  -15.4949    1.0000 </r>
       <r>  -15.4486    1.0000 </r>
       <r>  -15.3678    1.0000 </r>
       <r>   -9.7755    1.0000 </r>
       <r>   -9.2907    1.0000 </r>
       <r>   -9.2684    1.0000 </r>
       <r>   -9.0063    1.0000 </r>
       <r>   -8.9378    1.0000 </r>
       <r>   -8.7769    1.0000 </r>
       <r>   -8.6179    1.0000 </r>
       <r>   -8.5459    1.0000 </r>
       <r>   -8.4282    1.0000 </r>
       <r>   -8.3459    1.0000 </r>
       <r>   -8.2606    1.0000 </r>
       <r>   -8.1805    1.0000 </r>
       <r>   -7.9806    1.0000 </r>
       <r>   -7.9310    1.0000 </r>
       <r>   -7.9000    1.0000 </r>
       <r>   -7.8373    1.0000 </r>
       <r>   -7.8280    1.0000 </r>
       <r>   -7.6796    1.0000 </r>
       <r>   -7.6441    1.0000 </r>
       <r>   -7.5469    1.0000 </r>
       <r>   -7.3505    1.0000 </r>
       <r>   -7.2987    1.0000 </r>
       <r>   -7.0215    1.0000 </r>
       <r>   -6.9495    1.0000 </r>
       <r>   -6.9211    1.0000 </r>
       <r>   -6.8849    1.0000 </r>
       <r>   -6.8622    1.0000 </r>
       <r>   -6.7451    1.0000 </r>
       <r>   -6.7115    1.0000 </r>
       <r>   -6.6380    1.0000 </r>
       <r>   -6.5995    1.0000 </r>
       <r>   -6.5639    1.0000 </r>
       <r>   -6.4254    1.0000 </r>
       <r>   -6.3797    1.0000 </r>
       <r>   -6.2278    1.0000 </r>
       <r>   -6.1862    1.0000 </r>
       <r>   -6.1607    1.0000 </r>
       <r>   -6.1153    1.0000 </r>
       <r>   -5.9718    1.0000 </r>
       <r>   -5.8937    1.0000 </r>
       <r>   -5.8568    1.0000 </r>
       <r>   -5.8400    1.0000 </r>
       <r>   -5.7798    1.0000 </r>
       <r>   -5.6749    1.0000 </r>
       <r>   -5.5044    1.0000 </r>
       <r>   -5.4840    1.0000 </r>
       <r>   -5.3904    1.0000 </r>
       <r>   -5.1055    1.0000 </r>
       <r>   -4.9723    1.0000 </r>
       <r>   -4.8699    1.0000 </r>
       <r>   -4.8299    1.0000 </r>
       <r>   -4.7629    1.0000 </r>
       <r>   -4.5997    1.0000 </r>
       <r>   -4.4126    1.0000 </r>
       <r>   -4.2980    1.0000 </r>
       <r>   -4.2308    1.0000 </r>
       <r>   -4.2031    1.0000 </r>
       <r>   -4.0516    1.0000 </r>
       <r>   -3.8480    1.0000 </r>
       <r>   -3.5346    0.9576 </r>
       <r>   -3.4188    0.8173 </r>
       <r>   -3.3693    0.7106 </r>
       <r>   -3.1337    0.1333 </r>
       <r>   -2.8781    0.0018 </r>
       <r>   -2.7123    0.0000 </r>
       <r>   -2.5955    0.0000 </r>
       <r>   -2.5116    0.0000 </r>
       <r>   -2.4933    0.0000 </r>
       <r>   -2.1984    0.0000 </r>
       <r>   -2.1730    0.0000 </r>
       <r>   -2.1287    0.0000 </r>
       <r>   -2.0622    0.0000 </r>
       <r>   -1.8287    0.0000 </r>
       <r>   -1.5908    0.0000 </r>
       <r>   -1.4882    0.0000 </r>
       <r>   -1.3936    0.0000 </r>
       <r>   -1.3353    0.0000 </r>
       <r>   -1.2579    0.0000 </r>
       <r>   -1.1589    0.0000 </r>
       <r>   -1.0910    0.0000 </r>
       <r>   -0.9124    0.0000 </r>
       <r>   -0.8969    0.0000 </r>
       <r>   -0.8188    0.0000 </r>
       <r>   -0.7427    0.0000 </r>
       <r>   -0.6758    0.0000 </r>
       <r>   -0.5621    0.0000 </r>
       <r>   -0.4623    0.0000 </r>
       <r>   -0.3646    0.0000 </r>
       <r>   -0.1728    0.0000 </r>
       <r>   -0.0744    0.0000 </r>
       <r>    0.1483    0.0000 </r>
       <r>    0.1724    0.0000 </r>
       <r>    0.2122    0.0000 </r>
       <r>    0.5994    0.0000 </r>
       <r>    0.7389    0.0000 </r>
       <r>    1.0062    0.0000 </r>
       <r>    1.1719    0.0000 </r>
       <r>    1.2303    0.0000 </r>
       <r>    1.3066    0.0000 </r>
       <r>    2.2128    0.0000 </r>
       <r>    2.2493    0.0000 </r>
       <r>    2.3683    0.0000 </r>
      </set>
     </set>
    </set>
   </array>
  </eigenvalues>
  <separator name="orbital magnetization" >
   <v name="MAGDIPOLOUT">      0.00000000      0.00000000      0.00000000</v>
  </separator>
 </calculation>
 <structure name="finalpos" >
  <crystal>
   <varray name="basis" >
    <v>       8.33217482       4.84678435       0.00000000 </v>
    <v>      -8.33454687       4.85086932       0.00000000 </v>
    <v>       0.00000000       0.00000000      30.00000000 </v>
   </varray>
   <i name="volume">   2424.42127625 </i>
   <varray name="rec_basis" >
    <v>       0.06002508       0.10313241       0.00000000 </v>
    <v>      -0.05997453       0.10310306       0.00000000 </v>
    <v>       0.00000000       0.00000000       0.03333333 </v>
   </varray>
  </crystal>
  <varray name="positions" >
   <v>       0.64672773       0.34306860      -0.00006099 </v>
   <v>      -0.00842652       0.68710461      -0.00005598 </v>
   <v>       0.65906673       0.67438788       0.00004573 </v>
   <v>       0.33015228       0.00323944       0.00014315 </v>
   <v>       0.31762631       0.30168437       0.00035317 </v>
   <v>       0.03027643       0.01531440       0.00049646 </v>
   <v>       1.01626295       0.31139208      -0.00020975 </v>
   <v>       0.35577016       0.69487918      -0.00064947 </v>
   <v>       0.64134579      -0.02231435      -0.00093499 </v>
   <v>       0.11655236       0.21635437       0.94292070 </v>
   <v>       0.22629037       0.10646052       0.05740812 </v>
   <v>       0.10854598       0.55695933       0.95445810 </v>
   <v>       0.22893381       0.44660893       0.04976882 </v>
   <v>       0.11047452       0.88441050       0.94656375 </v>
   <v>       0.21542959       0.77229322       0.05032329 </v>
   <v>       0.44924856       0.22303335       0.94651302 </v>
   <v>       0.56180177       0.11818659       0.04991625 </v>
   <v>       0.44368771       0.55158756       0.95240461 </v>
   <v>       0.55413630       0.44651765       0.05056406 </v>
   <v>       0.44246804       0.89212580       0.94399703 </v>
   <v>       0.55758431       0.77593669       0.05508507 </v>
   <v>       0.77613016       0.22502037       0.95393843 </v>
   <v>       0.88695145       0.10365093       0.05072701 </v>
   <v>       0.77323469       0.56026730       0.95172983 </v>
   <v>       0.88984506       0.44343847       0.04199269 </v>
   <v>       0.78164807       0.88837217       0.95196041 </v>
   <v>       0.88644986       0.77823450       0.05060138 </v>
  </varray>
 </structure>
</modeling>
