<?xml version="1.0" encoding="ISO-8859-1"?>
<modeling>
 <generator>
  <i name="program" type="string">vasp </i>
  <i name="version" type="string">5.4.1  </i>
  <i name="subversion" type="string">05Feb16 (build Jul 05 2020 17:13:04) complex                          parallel </i>
  <i name="platform" type="string">IFC91_ompi </i>
  <i name="date" type="string">2024 08 02 </i>
  <i name="time" type="string">03:32:27 </i>
 </generator>
 <incar>
  <i type="int" name="ISTART">     0</i>
  <i type="string" name="PREC">normal</i>
  <i type="string" name="ALGO"> Normal</i>
  <i type="int" name="ISPIN">     1</i>
  <i type="int" name="ICHARG">     2</i>
  <i type="int" name="IBRION">     1</i>
  <i type="int" name="NSW">   100</i>
  <i type="int" name="ISIF">     3</i>
  <i type="int" name="ISYM">     0</i>
  <i name="SYMPREC">      0.00000001</i>
  <i name="POTIM">      0.50000000</i>
  <i type="logical" name="LREAL"> F  </i>
  <i type="logical" name="LPLANE"> F  </i>
  <i type="int" name="ISMEAR">     0</i>
  <i type="logical" name="LWAVE"> F  </i>
  <i type="logical" name="LCHARG"> F  </i>
  <v type="int" name="KPOINT_BSE">    -1     0     0     0</v>
 </incar>
 <kpoints>
  <generation param="Gamma">
   <v type="int" name="divisions">       8        8        1 </v>
   <v name="usershift">      0.00000000       0.00000000       0.00000000 </v>
   <v name="genvec1">      0.12500000       0.00000000       0.00000000 </v>
   <v name="genvec2">     -0.00000000       0.12500000       0.00000000 </v>
   <v name="genvec3">      0.00000000       0.00000000       1.00000000 </v>
   <v name="shift">      0.00000000       0.00000000       0.00000000 </v>
  </generation>
  <varray name="kpointlist" >
   <v>       0.00000000       0.00000000       0.00000000 </v>
   <v>       0.12500000       0.00000000       0.00000000 </v>
   <v>       0.25000000       0.00000000       0.00000000 </v>
   <v>       0.37500000       0.00000000       0.00000000 </v>
   <v>       0.50000000       0.00000000       0.00000000 </v>
   <v>       0.00000000       0.12500000       0.00000000 </v>
   <v>       0.12500000       0.12500000       0.00000000 </v>
   <v>       0.25000000       0.12500000       0.00000000 </v>
   <v>       0.37500000       0.12500000       0.00000000 </v>
   <v>       0.50000000       0.12500000       0.00000000 </v>
   <v>      -0.37500000       0.12500000       0.00000000 </v>
   <v>      -0.25000000       0.12500000       0.00000000 </v>
   <v>      -0.12500000       0.12500000       0.00000000 </v>
   <v>       0.00000000       0.25000000       0.00000000 </v>
   <v>       0.12500000       0.25000000       0.00000000 </v>
   <v>       0.25000000       0.25000000       0.00000000 </v>
   <v>       0.37500000       0.25000000       0.00000000 </v>
   <v>       0.50000000       0.25000000       0.00000000 </v>
   <v>      -0.37500000       0.25000000       0.00000000 </v>
   <v>      -0.25000000       0.25000000       0.00000000 </v>
   <v>      -0.12500000       0.25000000       0.00000000 </v>
   <v>      -0.00000000       0.37500000       0.00000000 </v>
   <v>       0.12500000       0.37500000       0.00000000 </v>
   <v>       0.25000000       0.37500000       0.00000000 </v>
   <v>       0.37500000       0.37500000       0.00000000 </v>
   <v>       0.50000000       0.37500000       0.00000000 </v>
   <v>      -0.37500000       0.37500000       0.00000000 </v>
   <v>      -0.25000000       0.37500000       0.00000000 </v>
   <v>      -0.12500000       0.37500000       0.00000000 </v>
   <v>       0.00000000       0.50000000       0.00000000 </v>
   <v>       0.12500000       0.50000000       0.00000000 </v>
   <v>       0.25000000       0.50000000       0.00000000 </v>
   <v>       0.37500000       0.50000000       0.00000000 </v>
   <v>       0.50000000       0.50000000       0.00000000 </v>
  </varray>
  <varray name="weights" >
   <v>       0.01562500 </v>
   <v>       0.03125000 </v>
   <v>       0.03125000 </v>
   <v>       0.03125000 </v>
   <v>       0.01562500 </v>
   <v>       0.03125000 </v>
   <v>       0.03125000 </v>
   <v>       0.03125000 </v>
   <v>       0.03125000 </v>
   <v>       0.03125000 </v>
   <v>       0.03125000 </v>
   <v>       0.03125000 </v>
   <v>       0.03125000 </v>
   <v>       0.03125000 </v>
   <v>       0.03125000 </v>
   <v>       0.03125000 </v>
   <v>       0.03125000 </v>
   <v>       0.03125000 </v>
   <v>       0.03125000 </v>
   <v>       0.03125000 </v>
   <v>       0.03125000 </v>
   <v>       0.03125000 </v>
   <v>       0.03125000 </v>
   <v>       0.03125000 </v>
   <v>       0.03125000 </v>
   <v>       0.03125000 </v>
   <v>       0.03125000 </v>
   <v>       0.03125000 </v>
   <v>       0.03125000 </v>
   <v>       0.01562500 </v>
   <v>       0.03125000 </v>
   <v>       0.03125000 </v>
   <v>       0.03125000 </v>
   <v>       0.01562500 </v>
  </varray>
 </kpoints>
 <parameters>
  <separator name="general" >
   <i type="string" name="SYSTEM">unknown system</i>
   <i type="logical" name="LCOMPAT"> F  </i>
  </separator>
  <separator name="electronic" >
   <i type="string" name="PREC">normal</i>
   <i name="ENMAX">    280.00000000</i>
   <i name="ENAUG">    373.43800000</i>
   <i name="EDIFF">      0.00010000</i>
   <i type="int" name="IALGO">    38</i>
   <i type="int" name="IWAVPR">    11</i>
   <i type="int" name="NBANDS">   120</i>
   <i name="NELECT">    159.00000000</i>
   <i type="int" name="TURBO">     0</i>
   <i type="int" name="IRESTART">     0</i>
   <i type="int" name="NREBOOT">     0</i>
   <i type="int" name="NMIN">     0</i>
   <i name="EREF">      0.00000000</i>
   <separator name="electronic smearing" >
    <i type="int" name="ISMEAR">     0</i>
    <i name="SIGMA">      0.20000000</i>
    <i name="KSPACING">      0.50000000</i>
    <i type="logical" name="KGAMMA"> T  </i>
   </separator>
   <separator name="electronic projectors" >
    <i type="logical" name="LREAL"> F  </i>
    <v name="ROPT">      0.00000000      0.00000000      0.00000000      0.00000000</v>
    <i type="int" name="LMAXPAW">  -100</i>
    <i type="int" name="LMAXMIX">     2</i>
    <i type="logical" name="NLSPLINE"> F  </i>
   </separator>
   <separator name="electronic startup" >
    <i type="int" name="ISTART">     0</i>
    <i type="int" name="ICHARG">     2</i>
    <i type="int" name="INIWAV">     1</i>
   </separator>
   <separator name="electronic spin" >
    <i type="int" name="ISPIN">     1</i>
    <i type="logical" name="LNONCOLLINEAR"> F  </i>
    <v name="MAGMOM">      1.00000000      1.00000000      1.00000000      1.00000000      1.00000000      1.00000000      1.00000000      1.00000000      1.00000000      1.00000000      1.00000000      1.00000000      1.00000000      1.00000000      1.00000000      1.00000000      1.00000000      1.00000000      1.00000000      1.00000000
      1.00000000      1.00000000      1.00000000      1.00000000      1.00000000      1.00000000      1.00000000</v>
    <i name="NUPDOWN">     -1.00000000</i>
    <i type="logical" name="LSORBIT"> F  </i>
    <v name="SAXIS">      0.00000000      0.00000000      1.00000000</v>
    <i type="logical" name="LSPIRAL"> F  </i>
    <v name="QSPIRAL">      0.00000000      0.00000000      0.00000000</v>
    <i type="logical" name="LZEROZ"> F  </i>
   </separator>
   <separator name="electronic exchange-correlation" >
    <i type="logical" name="LASPH"> F  </i>
    <i type="logical" name="LMETAGGA"> F  </i>
   </separator>
   <separator name="electronic convergence" >
    <i type="int" name="NELM">    60</i>
    <i type="int" name="NELMDL">    -5</i>
    <i type="int" name="NELMIN">     2</i>
    <i name="ENINI">    280.00000000</i>
    <separator name="electronic convergence detail" >
     <i type="logical" name="LDIAG"> T  </i>
     <i type="logical" name="LSUBROT"> F  </i>
     <i name="WEIMIN">      0.00100000</i>
     <i name="EBREAK">      0.00000021</i>
     <i name="DEPER">      0.30000000</i>
     <i type="int" name="NRMM">     4</i>
     <i name="TIME">      0.40000000</i>
    </separator>
   </separator>
   <separator name="electronic mixer" >
    <i name="AMIX">      0.40000000</i>
    <i name="BMIX">      1.00000000</i>
    <i name="AMIN">      0.10000000</i>
    <i name="AMIX_MAG">      1.60000000</i>
    <i name="BMIX_MAG">      1.00000000</i>
    <separator name="electronic mixer details" >
     <i type="int" name="IMIX">     4</i>
     <i type="logical" name="MIXFIRST"> F  </i>
     <i type="int" name="MAXMIX">   -45</i>
     <i name="WC">    100.00000000</i>
     <i type="int" name="INIMIX">     1</i>
     <i type="int" name="MIXPRE">     1</i>
     <i type="int" name="MREMOVE">     5</i>
    </separator>
   </separator>
   <separator name="electronic dipolcorrection" >
    <i type="logical" name="LDIPOL"> F  </i>
    <i type="logical" name="LMONO"> F  </i>
    <i type="int" name="IDIPOL">     0</i>
    <i name="EPSILON">      1.00000000</i>
    <v name="DIPOL">   -100.00000000   -100.00000000   -100.00000000</v>
    <i name="EFIELD">      0.00000000</i>
   </separator>
  </separator>
  <separator name="grids" >
   <i type="int" name="NGX">    42</i>
   <i type="int" name="NGY">    42</i>
   <i type="int" name="NGZ">   126</i>
   <i type="int" name="NGXF">    84</i>
   <i type="int" name="NGYF">    84</i>
   <i type="int" name="NGZF">   252</i>
   <i type="logical" name="ADDGRID"> F  </i>
  </separator>
  <separator name="ionic" >
   <i type="int" name="NSW">   100</i>
   <i type="int" name="IBRION">     1</i>
   <i type="int" name="ISIF">     3</i>
   <i name="PSTRESS">      0.00000000</i>
   <i name="EDIFFG">      0.00100000</i>
   <i type="int" name="NFREE">     0</i>
   <i name="POTIM">      0.50000000</i>
   <i name="SMASS">     -3.00000000</i>
   <i name="SCALEE">      1.00000000</i>
  </separator>
  <separator name="ionic md" >
   <i name="TEBEG">      0.00010000</i>
   <i name="TEEND">      0.00010000</i>
   <i type="int" name="NBLOCK">     1</i>
   <i type="int" name="KBLOCK">   100</i>
   <i type="int" name="NPACO">   256</i>
   <i name="APACO">     16.00000000</i>
  </separator>
  <separator name="symmetry" >
   <i type="int" name="ISYM">     0</i>
   <i name="SYMPREC">      0.00000001</i>
  </separator>
  <separator name="dos" >
   <i type="logical" name="LORBIT"> F  </i>
   <v name="RWIGS">     -1.00000000     -1.00000000     -1.00000000     -1.00000000</v>
   <i type="int" name="NEDOS">   301</i>
   <i name="EMIN">     10.00000000</i>
   <i name="EMAX">    -10.00000000</i>
   <i name="EFERMI">      0.00000000</i>
  </separator>
  <separator name="writing" >
   <i type="int" name="NWRITE">     2</i>
   <i type="logical" name="LWAVE"> F  </i>
   <i type="logical" name="LCHARG"> F  </i>
   <i type="logical" name="LPARD"> F  </i>
   <i type="logical" name="LVTOT"> F  </i>
   <i type="logical" name="LVHAR"> F  </i>
   <i type="logical" name="LELF"> F  </i>
   <i type="logical" name="LOPTICS"> F  </i>
   <v name="STM">      0.00000000      0.00000000      0.00000000      0.00000000      0.00000000      0.00000000      0.00000000</v>
  </separator>
  <separator name="performance" >
   <i type="int" name="NPAR">    40</i>
   <i type="int" name="NSIM">     4</i>
   <i type="int" name="NBLK">    -1</i>
   <i type="logical" name="LPLANE"> F  </i>
   <i type="logical" name="LSCALAPACK"> T  </i>
   <i type="logical" name="LSCAAWARE"> F  </i>
   <i type="logical" name="LSCALU"> F  </i>
   <i type="logical" name="LASYNC"> F  </i>
   <i type="logical" name="LORBITALREAL"> F  </i>
  </separator>
  <separator name="miscellaneous" >
   <i type="int" name="IDIOT">     3</i>
   <i type="logical" name="LMUSIC"> F  </i>
   <v name="POMASS">     50.94100000     95.94000000    183.85000000     32.06600000</v>
   <v name="DARWINR">      0.00000000      0.00000000      0.00000000      0.00000000</v>
   <v name="DARWINV">      1.00000000      1.00000000      1.00000000      1.00000000</v>
   <i type="logical" name="LCORR"> T  </i>
  </separator>
  <i type="logical" name="GGA_COMPAT"> T  </i>
  <i type="logical" name="LBERRY"> F  </i>
  <i type="int" name="ICORELEVEL">     0</i>
  <i type="logical" name="LDAU"> F  </i>
  <i type="int" name="I_CONSTRAINED_M">     0</i>
  <separator name="electronic exchange-correlation" >
   <i type="string" name="GGA">--</i>
   <i type="int" name="VOSKOWN">     0</i>
   <i type="logical" name="LHFCALC"> F  </i>
   <i type="string" name="PRECFOCK"></i>
   <i type="logical" name="LSYMGRAD"> F  </i>
   <i type="logical" name="LHFONE"> F  </i>
   <i type="logical" name="LRHFCALC"> F  </i>
   <i type="logical" name="LTHOMAS"> F  </i>
   <i type="logical" name="LMODELHF"> F  </i>
   <i name="ENCUT4O">     -1.00000000</i>
   <i type="int" name="EXXOEP">     0</i>
   <i type="int" name="FOURORBIT">     0</i>
   <i name="AEXX">      0.00000000</i>
   <i name="HFALPHA">      0.00000000</i>
   <i name="MCALPHA">      0.00000000</i>
   <i name="ALDAX">      1.00000000</i>
   <i name="AGGAX">      1.00000000</i>
   <i name="ALDAC">      1.00000000</i>
   <i name="AGGAC">      1.00000000</i>
   <i type="int" name="NKREDX">     1</i>
   <i type="int" name="NKREDY">     1</i>
   <i type="int" name="NKREDZ">     1</i>
   <i type="logical" name="SHIFTRED"> F  </i>
   <i type="logical" name="ODDONLY"> F  </i>
   <i type="logical" name="EVENONLY"> F  </i>
   <i type="int" name="LMAXFOCK">     0</i>
   <i type="int" name="NMAXFOCKAE">     0</i>
   <i type="logical" name="LFOCKAEDFT"> F  </i>
   <i name="HFSCREEN">      0.00000000</i>
   <i name="HFSCREENC">      0.00000000</i>
   <i type="int" name="NBANDSGWLOW">     0</i>
  </separator>
  <separator name="vdW DFT" >
   <i type="logical" name="LUSE_VDW"> F  </i>
   <i name="Zab_VDW">     -0.84910000</i>
   <i name="PARAM1">      0.12340000</i>
   <i name="PARAM2">      1.00000000</i>
   <i name="PARAM3">      0.00000000</i>
  </separator>
  <separator name="model GW" >
   <i type="int" name="MODEL_GW">     0</i>
   <i name="MODEL_EPS0">     58.26239943</i>
   <i name="MODEL_ALPHA">      1.00000000</i>
  </separator>
  <separator name="linear response parameters" >
   <i type="logical" name="LEPSILON"> F  </i>
   <i type="logical" name="LRPA"> F  </i>
   <i type="logical" name="LNABLA"> F  </i>
   <i type="logical" name="LVEL"> F  </i>
   <i type="int" name="KINTER">     0</i>
   <i name="CSHIFT">      0.10000000</i>
   <i name="OMEGAMAX">     -1.00000000</i>
   <i name="DEG_THRESHOLD">      0.00200000</i>
  </separator>
  <separator name="orbital magnetization" >
   <i type="logical" name="NUCIND"> F  </i>
   <v name="MAGPOS">      0.00000000      0.00000000      0.00000000</v>
   <i type="logical" name="LNICSALL"> T  </i>
   <i type="logical" name="ORBITALMAG"> F  </i>
   <i type="logical" name="LMAGBLOCH"> F  </i>
   <i type="logical" name="LCHIMAG"> F  </i>
   <i type="logical" name="LGAUGE"> T  </i>
   <i type="int" name="MAGATOM">     0</i>
   <v name="MAGDIPOL">      0.00000000      0.00000000      0.00000000</v>
   <v name="AVECCONST">      0.00000000      0.00000000      0.00000000</v>
  </separator>
  <separator name="response functions" >
   <i type="logical" name="LADDER"> F  </i>
   <i type="logical" name="LFXC"> F  </i>
   <i type="logical" name="LHARTREE"> T  </i>
   <i type="int" name="IBSE">     0</i>
   <v type="int" name="KPOINT">    -1     0     0     0</v>
   <i type="logical" name="LTCTE"> F  </i>
   <i type="logical" name="LTETE"> F  </i>
   <i type="logical" name="LTRIPLET"> F  </i>
   <i type="logical" name="LFXCEPS"> F  </i>
   <i type="logical" name="LFXHEG"> F  </i>
   <i type="int" name="NATURALO">     0</i>
   <i type="logical" name="L2ORDER"> F  </i>
   <i type="logical" name="LUSEW"> F  </i>
   <i name="ENCUTGW">     -2.00000000</i>
   <i name="ENCUTGWSOFT">     -2.00000000</i>
   <i name="ENCUTLF">     -1.00000000</i>
   <i type="int" name="LMAXMP2">    -1</i>
   <i name="SCISSOR">      0.00000000</i>
   <i type="int" name="NOMEGA">     0</i>
   <i type="int" name="NOMEGAR">     0</i>
   <i type="int" name="NBANDSGW">    -1</i>
   <i type="int" name="NBANDSO">    -1</i>
   <i type="int" name="NBANDSV">    -1</i>
   <i type="int" name="NELM">     1</i>
   <i type="int" name="NELMHF">     1</i>
   <i type="int" name="DIM">     3</i>
   <i type="int" name="ANTIRES">     0</i>
   <i name="OMEGAMAX">    -30.00000000</i>
   <i name="OMEGAMIN">    -30.00000000</i>
   <i name="OMEGATL">   -200.00000000</i>
   <i type="int" name="OMEGAGRID">     0</i>
   <i name="CSHIFT">     -0.10000000</i>
   <i type="logical" name="SELFENERGY"> F  </i>
   <i type="logical" name="LSPECTRAL"> F  </i>
   <i type="logical" name="LSPECTRALGW"> F  </i>
   <i type="logical" name="LSINGLES"> F  </i>
   <i type="logical" name="LFERMIGW"> F  </i>
   <i type="logical" name="ODDONLYGW"> F  </i>
   <i type="logical" name="EVENONLYGW"> F  </i>
   <i type="int" name="NKREDLFX">     1</i>
   <i type="int" name="NKREDLFY">     1</i>
   <i type="int" name="NKREDLFZ">     1</i>
   <i type="int" name="MAXMEM">  1800</i>
   <i type="int" name="TELESCOPE">     0</i>
   <i type="int" name="TAUPAR">     1</i>
   <i type="int" name="OMEGAPAR">    -1</i>
   <i name="LAMBDA">      1.00000000</i>
  </separator>
  <separator name="External order field" >
   <i name="OFIELD_KAPPA">      0.00000000</i>
   <v name="OFIELD_K">      0.00000000      0.00000000      0.00000000</v>
   <i name="OFIELD_Q6_NEAR">      0.00000000</i>
   <i name="OFIELD_Q6_FAR">      0.00000000</i>
   <i name="OFIELD_A">      0.00000000</i>
  </separator>
 </parameters>
 <atominfo>
  <atoms>      27 </atoms>
  <types>       4 </types>
  <array name="atoms" >
   <dimension dim="1">ion</dimension>
   <field type="string">element</field>
   <field type="int">atomtype</field>
   <set>
    <rc><c>V </c><c>   1</c></rc>
    <rc><c>V </c><c>   1</c></rc>
    <rc><c>V </c><c>   1</c></rc>
    <rc><c>Mo</c><c>   2</c></rc>
    <rc><c>Mo</c><c>   2</c></rc>
    <rc><c>Mo</c><c>   2</c></rc>
    <rc><c>W </c><c>   3</c></rc>
    <rc><c>W </c><c>   3</c></rc>
    <rc><c>W </c><c>   3</c></rc>
    <rc><c>S </c><c>   4</c></rc>
    <rc><c>S </c><c>   4</c></rc>
    <rc><c>S </c><c>   4</c></rc>
    <rc><c>S </c><c>   4</c></rc>
    <rc><c>S </c><c>   4</c></rc>
    <rc><c>S </c><c>   4</c></rc>
    <rc><c>S </c><c>   4</c></rc>
    <rc><c>S </c><c>   4</c></rc>
    <rc><c>S </c><c>   4</c></rc>
    <rc><c>S </c><c>   4</c></rc>
    <rc><c>S </c><c>   4</c></rc>
    <rc><c>S </c><c>   4</c></rc>
    <rc><c>S </c><c>   4</c></rc>
    <rc><c>S </c><c>   4</c></rc>
    <rc><c>S </c><c>   4</c></rc>
    <rc><c>S </c><c>   4</c></rc>
    <rc><c>S </c><c>   4</c></rc>
    <rc><c>S </c><c>   4</c></rc>
   </set>
  </array>
  <array name="atomtypes" >
   <dimension dim="1">type</dimension>
   <field type="int">atomspertype</field>
   <field type="string">element</field>
   <field>mass</field>
   <field>valence</field>
   <field type="string">pseudopotential</field>
   <set>
    <rc><c>   3</c><c>V </c><c>     50.94100000</c><c>      5.00000000</c><c> PAW_PBE V 08Apr2002                    </c></rc>
    <rc><c>   3</c><c>Mo</c><c>     95.94000000</c><c>      6.00000000</c><c> PAW_PBE Mo 08Apr2002                   </c></rc>
    <rc><c>   3</c><c>W </c><c>    183.85000000</c><c>      6.00000000</c><c> PAW_PBE W 08Apr2002                    </c></rc>
    <rc><c>  18</c><c>S </c><c>     32.06600000</c><c>      6.00000000</c><c>  PAW_PBE S 17Jan2003                   </c></rc>
   </set>
  </array>
 </atominfo>
 <structure name="initialpos" >
  <crystal>
   <varray name="basis" >
    <v>       8.66999996       5.03999989       0.00000000 </v>
    <v>      -8.66999982       5.04000013       0.00000000 </v>
    <v>       0.00000000       0.00000000      30.00000000 </v>
   </varray>
   <i name="volume">   2621.80797419 </i>
   <varray name="rec_basis" >
    <v>       0.05767013       0.09920635       0.00000000 </v>
    <v>      -0.05767013       0.09920635       0.00000000 </v>
    <v>       0.00000000       0.00000000       0.03333333 </v>
   </varray>
  </crystal>
  <varray name="positions" >
   <v>       0.33333334       0.00000000       0.00000000 </v>
   <v>       1.00000000       0.33333334       0.00000000 </v>
   <v>       0.33333334       0.33333334       0.00000000 </v>
   <v>       0.00000000       0.00000000       0.00000000 </v>
   <v>       0.00000000       0.66666669       0.00000000 </v>
   <v>       0.66666669       0.66666669       0.00000000 </v>
   <v>       0.33333334       0.66666669       0.00000000 </v>
   <v>       0.66666669       0.00000000       0.00000000 </v>
   <v>       0.66666669       0.33333334       0.00000000 </v>
   <v>       0.11068511       0.22244981       0.95539999 </v>
   <v>       0.22244981       0.11068511       0.04460000 </v>
   <v>       0.11068511       0.55578315       0.95539999 </v>
   <v>       0.22244981       0.44401845       0.04460000 </v>
   <v>       0.11068511       0.88911647       0.95539999 </v>
   <v>       0.22244981       0.77735180       0.04460000 </v>
   <v>       0.44401845       0.22244981       0.95539999 </v>
   <v>       0.55578315       0.11068511       0.04460000 </v>
   <v>       0.44401845       0.55578315       0.95539999 </v>
   <v>       0.55578315       0.44401845       0.04460000 </v>
   <v>       0.44401845       0.88911647       0.95539999 </v>
   <v>       0.55578315       0.77735180       0.04460000 </v>
   <v>       0.77735180       0.22244981       0.95539999 </v>
   <v>       0.88911647       0.11068511       0.04460000 </v>
   <v>       0.77735180       0.55578315       0.95539999 </v>
   <v>       0.88911647       0.44401845       0.04460000 </v>
   <v>       0.77735180       0.88911647       0.95539999 </v>
   <v>       0.88911647       0.77735180       0.04460000 </v>
  </varray>
 </structure>
 <calculation>
  <scstep>
   <time name="dav">   21.75   21.81</time>
   <time name="total">   21.80   21.86</time>
   <energy>
    <i name="alphaZ">     81.65567618 </i>
    <i name="ewald">  41890.25211673 </i>
    <i name="hartreedc"> -47722.88014883 </i>
    <i name="XCdc">   -242.92957544 </i>
    <i name="pawpsdc">   3467.42045192 </i>
    <i name="pawaedc">  -2871.19716117 </i>
    <i name="eentropy">     -0.52538427 </i>
    <i name="bandstr">   -239.00527644 </i>
    <i name="atom">   6761.44252427 </i>
    <i name="e_fr_energy">   1124.23322295 </i>
    <i name="e_wo_entrp">   1124.75860722 </i>
    <i name="e_0_energy">   1124.49591508 </i>
   </energy>
  </scstep>
  <scstep>
   <time name="dav">   28.08   28.14</time>
   <time name="total">   28.08   28.15</time>
   <energy>
    <i name="e_fr_energy">     -3.61520062 </i>
    <i name="e_wo_entrp">     -3.41813931 </i>
    <i name="e_0_energy">     -3.51666997 </i>
   </energy>
  </scstep>
  <scstep>
   <time name="dav">   27.45   27.51</time>
   <time name="total">   27.45   27.52</time>
   <energy>
    <i name="e_fr_energy">   -199.79135376 </i>
    <i name="e_wo_entrp">   -199.49357654 </i>
    <i name="e_0_energy">   -199.64246515 </i>
   </energy>
  </scstep>
  <scstep>
   <time name="dav">   29.54   29.62</time>
   <time name="total">   29.55   29.62</time>
   <energy>
    <i name="e_fr_energy">   -208.85709121 </i>
    <i name="e_wo_entrp">   -208.53236995 </i>
    <i name="e_0_energy">   -208.69473058 </i>
   </energy>
  </scstep>
  <scstep>
   <time name="dav">   28.94   29.01</time>
   <time name="total">   29.41   29.48</time>
   <energy>
    <i name="e_fr_energy">   -209.22106520 </i>
    <i name="e_wo_entrp">   -208.90010836 </i>
    <i name="e_0_energy">   -209.06058678 </i>
   </energy>
  </scstep>
  <scstep>
   <time name="dav">   30.86   30.94</time>
   <time name="total">   31.36   31.44</time>
   <energy>
    <i name="e_fr_energy">   -236.28946414 </i>
    <i name="e_wo_entrp">   -236.01298519 </i>
    <i name="e_0_energy">   -236.15122467 </i>
   </energy>
  </scstep>
  <scstep>
   <time name="dav">   32.57   32.65</time>
   <time name="total">   33.08   33.16</time>
   <energy>
    <i name="e_fr_energy">   -196.85402983 </i>
    <i name="e_wo_entrp">   -196.52174110 </i>
    <i name="e_0_energy">   -196.68788547 </i>
   </energy>
  </scstep>
  <scstep>
   <time name="dav">   29.50   29.57</time>
   <time name="total">   30.01   30.09</time>
   <energy>
    <i name="e_fr_energy">   -190.31700714 </i>
    <i name="e_wo_entrp">   -190.04942692 </i>
    <i name="e_0_energy">   -190.18321703 </i>
   </energy>
  </scstep>
  <scstep>
   <time name="dav">   30.31   30.39</time>
   <time name="total">   30.83   30.91</time>
   <energy>
    <i name="e_fr_energy">   -188.29961495 </i>
    <i name="e_wo_entrp">   -187.96357758 </i>
    <i name="e_0_energy">   -188.13159626 </i>
   </energy>
  </scstep>
  <scstep>
   <time name="dav">   32.42   32.50</time>
   <time name="total">   32.95   33.04</time>
   <energy>
    <i name="e_fr_energy">   -187.09570431 </i>
    <i name="e_wo_entrp">   -186.74968787 </i>
    <i name="e_0_energy">   -186.92269609 </i>
   </energy>
  </scstep>
  <scstep>
   <time name="dav">   30.59   30.66</time>
   <time name="total">   31.12   31.20</time>
   <energy>
    <i name="e_fr_energy">   -187.02028388 </i>
    <i name="e_wo_entrp">   -186.67363476 </i>
    <i name="e_0_energy">   -186.84695932 </i>
   </energy>
  </scstep>
  <scstep>
   <time name="dav">   30.52   30.59</time>
   <time name="total">   31.05   31.14</time>
   <energy>
    <i name="e_fr_energy">   -187.04942813 </i>
    <i name="e_wo_entrp">   -186.71395879 </i>
    <i name="e_0_energy">   -186.88169346 </i>
   </energy>
  </scstep>
  <scstep>
   <time name="dav">   32.00   32.07</time>
   <time name="total">   32.53   32.62</time>
   <energy>
    <i name="e_fr_energy">   -186.92409747 </i>
    <i name="e_wo_entrp">   -186.58605960 </i>
    <i name="e_0_energy">   -186.75507853 </i>
   </energy>
  </scstep>
  <scstep>
   <time name="dav">   31.35   31.43</time>
   <time name="total">   31.88   31.96</time>
   <energy>
    <i name="e_fr_energy">   -186.89608884 </i>
    <i name="e_wo_entrp">   -186.55299036 </i>
    <i name="e_0_energy">   -186.72453960 </i>
   </energy>
  </scstep>
  <scstep>
   <time name="dav">   30.98   31.05</time>
   <time name="total">   31.51   31.60</time>
   <energy>
    <i name="e_fr_energy">   -186.89252579 </i>
    <i name="e_wo_entrp">   -186.54850097 </i>
    <i name="e_0_energy">   -186.72051338 </i>
   </energy>
  </scstep>
  <scstep>
   <time name="dav">   31.89   31.97</time>
   <time name="total">   32.42   32.51</time>
   <energy>
    <i name="e_fr_energy">   -186.88753847 </i>
    <i name="e_wo_entrp">   -186.54362611 </i>
    <i name="e_0_energy">   -186.71558229 </i>
   </energy>
  </scstep>
  <scstep>
   <time name="dav">   31.30   31.37</time>
   <time name="total">   31.83   31.91</time>
   <energy>
    <i name="e_fr_energy">   -186.88592703 </i>
    <i name="e_wo_entrp">   -186.54306130 </i>
    <i name="e_0_energy">   -186.71449417 </i>
   </energy>
  </scstep>
  <scstep>
   <time name="dav">   30.02   30.09</time>
   <time name="total">   30.55   30.63</time>
   <energy>
    <i name="e_fr_energy">   -186.88510266 </i>
    <i name="e_wo_entrp">   -186.54273227 </i>
    <i name="e_0_energy">   -186.71391747 </i>
   </energy>
  </scstep>
  <scstep>
   <time name="dav">   27.94   28.01</time>
   <time name="total">   28.48   28.55</time>
   <energy>
    <i name="e_fr_energy">   -186.88491484 </i>
    <i name="e_wo_entrp">   -186.54206065 </i>
    <i name="e_0_energy">   -186.71348774 </i>
   </energy>
  </scstep>
  <scstep>
   <time name="dav">   23.84   23.89</time>
   <time name="total">   24.37   24.44</time>
   <energy>
    <i name="e_fr_energy">   -186.88575827 </i>
    <i name="e_wo_entrp">   -186.54323578 </i>
    <i name="e_0_energy">   -186.71449702 </i>
   </energy>
  </scstep>
  <scstep>
   <time name="dav">   21.63   21.69</time>
   <time name="total">   22.17   22.23</time>
   <energy>
    <i name="e_fr_energy">   -186.88661833 </i>
    <i name="e_wo_entrp">   -186.54398631 </i>
    <i name="e_0_energy">   -186.71530232 </i>
   </energy>
  </scstep>
  <scstep>
   <time name="dav">   19.52   19.57</time>
   <time name="total">   20.06   20.11</time>
   <energy>
    <i name="e_fr_energy">   -186.88742993 </i>
    <i name="e_wo_entrp">   -186.54482109 </i>
    <i name="e_0_energy">   -186.71612551 </i>
   </energy>
  </scstep>
  <scstep>
   <time name="dav">   20.45   20.50</time>
   <time name="total">   20.99   21.05</time>
   <energy>
    <i name="e_fr_energy">   -186.88863560 </i>
    <i name="e_wo_entrp">   -186.54614336 </i>
    <i name="e_0_energy">   -186.71738948 </i>
   </energy>
  </scstep>
  <scstep>
   <time name="dav">   18.90   18.95</time>
   <time name="total">   19.44   19.49</time>
   <energy>
    <i name="e_fr_energy">   -186.88918067 </i>
    <i name="e_wo_entrp">   -186.54661746 </i>
    <i name="e_0_energy">   -186.71789907 </i>
   </energy>
  </scstep>
  <scstep>
   <time name="dav">   16.23   16.27</time>
   <time name="total">   16.76   16.81</time>
   <energy>
    <i name="e_fr_energy">   -186.88956742 </i>
    <i name="e_wo_entrp">   -186.54698779 </i>
    <i name="e_0_energy">   -186.71827761 </i>
   </energy>
  </scstep>
  <scstep>
   <time name="dav">   19.00   19.04</time>
   <time name="total">   19.53   19.59</time>
   <energy>
    <i name="e_fr_energy">   -186.88980620 </i>
    <i name="e_wo_entrp">   -186.54724415 </i>
    <i name="e_0_energy">   -186.71852517 </i>
   </energy>
  </scstep>
  <scstep>
   <time name="dav">   20.28   20.33</time>
   <time name="total">   20.31   20.37</time>
   <energy>
    <i name="alphaZ">     81.65567618 </i>
    <i name="ewald">  41890.25211673 </i>
    <i name="hartreedc"> -47833.16916098 </i>
    <i name="XCdc">   -231.59828074 </i>
    <i name="pawpsdc">   4192.18901175 </i>
    <i name="pawaedc">  -3610.21465127 </i>
    <i name="eentropy">     -0.34256247 </i>
    <i name="bandstr">  -1437.10456000 </i>
    <i name="atom">   6761.44252427 </i>
    <i name="e_fr_energy">   -186.88988654 </i>
    <i name="e_wo_entrp">   -186.54732407 </i>
    <i name="e_0_energy">   -186.71860531 </i>
   </energy>
  </scstep>
  <structure>
   <crystal>
    <varray name="basis" >
     <v>       8.66999996       5.03999989       0.00000000 </v>
     <v>      -8.66999982       5.04000013       0.00000000 </v>
     <v>       0.00000000       0.00000000      30.00000000 </v>
    </varray>
    <i name="volume">   2621.80797419 </i>
    <varray name="rec_basis" >
     <v>       0.05767013       0.09920635       0.00000000 </v>
     <v>      -0.05767013       0.09920635       0.00000000 </v>
     <v>       0.00000000       0.00000000       0.03333333 </v>
    </varray>
   </crystal>
   <varray name="positions" >
    <v>       0.33333334       0.00000000       0.00000000 </v>
    <v>       1.00000000       0.33333334       0.00000000 </v>
    <v>       0.33333334       0.33333334       0.00000000 </v>
    <v>       0.00000000       0.00000000       0.00000000 </v>
    <v>       0.00000000       0.66666669       0.00000000 </v>
    <v>       0.66666669       0.66666669       0.00000000 </v>
    <v>       0.33333334       0.66666669       0.00000000 </v>
    <v>       0.66666669       0.00000000       0.00000000 </v>
    <v>       0.66666669       0.33333334       0.00000000 </v>
    <v>       0.11068511       0.22244981       0.95539999 </v>
    <v>       0.22244981       0.11068511       0.04460000 </v>
    <v>       0.11068511       0.55578315       0.95539999 </v>
    <v>       0.22244981       0.44401845       0.04460000 </v>
    <v>       0.11068511       0.88911647       0.95539999 </v>
    <v>       0.22244981       0.77735180       0.04460000 </v>
    <v>       0.44401845       0.22244981       0.95539999 </v>
    <v>       0.55578315       0.11068511       0.04460000 </v>
    <v>       0.44401845       0.55578315       0.95539999 </v>
    <v>       0.55578315       0.44401845       0.04460000 </v>
    <v>       0.44401845       0.88911647       0.95539999 </v>
    <v>       0.55578315       0.77735180       0.04460000 </v>
    <v>       0.77735180       0.22244981       0.95539999 </v>
    <v>       0.88911647       0.11068511       0.04460000 </v>
    <v>       0.77735180       0.55578315       0.95539999 </v>
    <v>       0.88911647       0.44401845       0.04460000 </v>
    <v>       0.77735180       0.88911647       0.95539999 </v>
    <v>       0.88911647       0.77735180       0.04460000 </v>
   </varray>
  </structure>
  <varray name="forces" >
   <v>      -0.28215412      -0.32223359      -0.05544833 </v>
   <v>       0.07506966       0.02942441       0.05432860 </v>
   <v>       0.00952477      -0.09251875      -0.02656571 </v>
   <v>       0.25881362      -0.33883088      -0.02987058 </v>
   <v>      -0.52990072      -0.01520341       0.09057557 </v>
   <v>       0.25770417       0.44224688      -0.00816826 </v>
   <v>       0.01752172      -0.06183965      -0.01364056 </v>
   <v>       0.55095943       0.00756920      -0.07120752 </v>
   <v>      -0.32425907       0.42129655       0.03119015 </v>
   <v>      -0.32251814       0.66795263      -1.38919190 </v>
   <v>       0.32171794       0.66734347       1.41886675 </v>
   <v>       0.61961760      -0.54356503      -2.09461330 </v>
   <v>       0.22531097      -0.54523719       1.45077741 </v>
   <v>       0.52788023       0.72529156      -2.17995943 </v>
   <v>      -0.36358841       0.67989342       2.14518812 </v>
   <v>      -0.22786468      -0.54777784      -1.43101714 </v>
   <v>      -0.47320432      -0.57286732       2.07846663 </v>
   <v>       0.36173911      -0.68260439      -2.11569063 </v>
   <v>      -0.36406288      -0.69348747       2.15461240 </v>
   <v>      -0.62678727       0.01175307      -2.15134745 </v>
   <v>      -0.25716885      -0.01760389       2.89366552 </v>
   <v>       0.46640989       0.54642329      -2.14655119 </v>
   <v>      -0.63315417       0.57723896       2.16692084 </v>
   <v>       0.19524414      -0.16804235      -2.91733166 </v>
   <v>       0.68443544      -0.14894043       2.13465111 </v>
   <v>      -0.07075187      -0.01692086      -2.93750643 </v>
   <v>      -0.09653421      -0.00876039       2.94886700 </v>
  </varray>
  <varray name="stress" >
   <v>       7.26131162      -0.04318101      -1.53355458 </v>
   <v>      -0.04318111       4.52128689      -0.04483747 </v>
   <v>      -1.53355473      -0.04483754      30.27507564 </v>
  </varray>
  <energy>
   <i name="e_fr_energy">   -186.88988654 </i>
   <i name="e_wo_entrp">   -186.71860531 </i>
   <i name="e_0_energy">     -0.34256247 </i>
  </energy>
  <time name="totalsc">  781.58  783.66</time>
 </calculation>
 <calculation>
  <scstep>
   <time name="dav">   21.55   21.60</time>
   <time name="total">   22.09   22.15</time>
   <energy>
    <i name="alphaZ">     78.91485194 </i>
    <i name="ewald">  39377.20581518 </i>
    <i name="hartreedc"> -45334.75169245 </i>
    <i name="XCdc">   -239.05807700 </i>
    <i name="pawpsdc">   4192.17300494 </i>
    <i name="pawaedc">  -3610.19871482 </i>
    <i name="eentropy">     -0.28311780 </i>
    <i name="bandstr">  -1412.98870993 </i>
    <i name="atom">   6761.44252427 </i>
    <i name="e_fr_energy">   -187.54411566 </i>
    <i name="e_wo_entrp">   -187.26099786 </i>
    <i name="e_0_energy">   -187.40255676 </i>
   </energy>
  </scstep>
  <scstep>
   <time name="dav">   30.48   30.55</time>
   <time name="total">   31.01   31.09</time>
   <energy>
    <i name="e_fr_energy">   -189.53320100 </i>
    <i name="e_wo_entrp">   -189.20075158 </i>
    <i name="e_0_energy">   -189.36697629 </i>
   </energy>
  </scstep>
  <scstep>
   <time name="dav">   30.31   30.38</time>
   <time name="total">   30.86   30.94</time>
   <energy>
    <i name="e_fr_energy">   -189.37693927 </i>
    <i name="e_wo_entrp">   -189.10111686 </i>
    <i name="e_0_energy">   -189.23902806 </i>
   </energy>
  </scstep>
  <scstep>
   <time name="dav">   30.54   30.61</time>
   <time name="total">   31.08   31.16</time>
   <energy>
    <i name="e_fr_energy">   -188.80395903 </i>
    <i name="e_wo_entrp">   -188.52272225 </i>
    <i name="e_0_energy">   -188.66334064 </i>
   </energy>
  </scstep>
  <scstep>
   <time name="dav">   30.53   30.61</time>
   <time name="total">   31.07   31.16</time>
   <energy>
    <i name="e_fr_energy">   -188.95348851 </i>
    <i name="e_wo_entrp">   -188.66009978 </i>
    <i name="e_0_energy">   -188.80679415 </i>
   </energy>
  </scstep>
  <scstep>
   <time name="dav">   31.09   31.17</time>
   <time name="total">   31.64   31.73</time>
   <energy>
    <i name="e_fr_energy">   -188.77222887 </i>
    <i name="e_wo_entrp">   -188.49242855 </i>
    <i name="e_0_energy">   -188.63232871 </i>
   </energy>
  </scstep>
  <scstep>
   <time name="dav">   27.49   27.56</time>
   <time name="total">   28.04   28.12</time>
   <energy>
    <i name="e_fr_energy">   -188.74370457 </i>
    <i name="e_wo_entrp">   -188.46286744 </i>
    <i name="e_0_energy">   -188.60328601 </i>
   </energy>
  </scstep>
  <scstep>
   <time name="dav">   29.85   29.92</time>
   <time name="total">   30.40   30.48</time>
   <energy>
    <i name="e_fr_energy">   -188.71973138 </i>
    <i name="e_wo_entrp">   -188.43949135 </i>
    <i name="e_0_energy">   -188.57961136 </i>
   </energy>
  </scstep>
  <scstep>
   <time name="dav">   28.58   28.65</time>
   <time name="total">   29.12   29.20</time>
   <energy>
    <i name="e_fr_energy">   -188.71697147 </i>
    <i name="e_wo_entrp">   -188.43710471 </i>
    <i name="e_0_energy">   -188.57703809 </i>
   </energy>
  </scstep>
  <scstep>
   <time name="dav">   32.88   32.96</time>
   <time name="total">   33.43   33.52</time>
   <energy>
    <i name="e_fr_energy">   -188.71586745 </i>
    <i name="e_wo_entrp">   -188.43626600 </i>
    <i name="e_0_energy">   -188.57606673 </i>
   </energy>
  </scstep>
  <scstep>
   <time name="dav">   29.66   29.73</time>
   <time name="total">   30.22   30.61</time>
   <energy>
    <i name="e_fr_energy">   -188.71524136 </i>
    <i name="e_wo_entrp">   -188.43607776 </i>
    <i name="e_0_energy">   -188.57565956 </i>
   </energy>
  </scstep>
  <scstep>
   <time name="dav">   26.86   26.93</time>
   <time name="total">   27.41   27.48</time>
   <energy>
    <i name="e_fr_energy">   -188.71538966 </i>
    <i name="e_wo_entrp">   -188.43611608 </i>
    <i name="e_0_energy">   -188.57575287 </i>
   </energy>
  </scstep>
  <scstep>
   <time name="dav">   21.90   21.95</time>
   <time name="total">   21.94   22.00</time>
   <energy>
    <i name="alphaZ">     78.91485194 </i>
    <i name="ewald">  39377.20581518 </i>
    <i name="hartreedc"> -45345.49186466 </i>
    <i name="XCdc">   -237.96760931 </i>
    <i name="pawpsdc">   3950.57495097 </i>
    <i name="pawaedc">  -3365.09793472 </i>
    <i name="eentropy">     -0.27927344 </i>
    <i name="bandstr">  -1408.01678672 </i>
    <i name="atom">   6761.44252427 </i>
    <i name="e_fr_energy">   -188.71532648 </i>
    <i name="e_wo_entrp">   -188.43605304 </i>
    <i name="e_0_energy">   -188.57568976 </i>
   </energy>
  </scstep>
  <structure>
   <crystal>
    <varray name="basis" >
     <v>       8.85343740       5.10553227       0.00000000 </v>
     <v>      -8.85470991       5.10772178       0.00000000 </v>
     <v>       0.00000000       0.00000000      30.00000000 </v>
    </varray>
    <i name="volume">   2712.86706706 </i>
    <varray name="rec_basis" >
     <v>       0.05648329       0.09791902       0.00000000 </v>
     <v>      -0.05645908       0.09790495       0.00000000 </v>
     <v>       0.00000000       0.00000000       0.03333333 </v>
    </varray>
   </crystal>
   <varray name="positions" >
    <v>       0.33100614      -0.00075720      -0.00008917 </v>
    <v>       1.00034968       0.33326531       0.00008737 </v>
    <v>       0.33291705       0.33286405      -0.00004272 </v>
    <v>      -0.00090158      -0.00234170      -0.00004803 </v>
    <v>      -0.00154703       0.66806819       0.00014565 </v>
    <v>       0.66950024       0.66806630      -0.00001314 </v>
    <v>       0.33308613       0.66632198      -0.00002194 </v>
    <v>       0.66823577      -0.00149663      -0.00011451 </v>
    <v>       0.66778086       0.33625180       0.00005016 </v>
    <v>       0.11298462       0.22654391       0.95316605 </v>
    <v>       0.22653877       0.11298393       0.04688166 </v>
    <v>       0.10980750       0.55145779       0.95203167 </v>
    <v>       0.22046717       0.44078211       0.04693298 </v>
    <v>       0.11562499       0.89111905       0.95189442 </v>
    <v>       0.22469220       0.78161731       0.04804965 </v>
    <v>       0.44076284       0.22046211       0.95309879 </v>
    <v>       0.55172489       0.10925991       0.04794236 </v>
    <v>       0.44175794       0.55150981       0.95199777 </v>
    <v>       0.55145126       0.44171232       0.04806481 </v>
    <v>       0.44233088       0.89091654       0.95194043 </v>
    <v>       0.55498342       0.77798303       0.04925327 </v>
    <v>       0.78126459       0.22376735       0.95194815 </v>
    <v>       0.89011758       0.11520930       0.04808460 </v>
    <v>       0.77709075       0.55443571       0.95070866 </v>
    <v>       0.89030785       0.44140142       0.04803271 </v>
    <v>       0.77707397       0.88923233       0.95067622 </v>
    <v>       0.88880597       0.77757844       0.04934204 </v>
   </varray>
  </structure>
  <varray name="forces" >
   <v>      -0.17549492      -0.29565984       0.06612103 </v>
   <v>       0.02632154       0.01768791      -0.07456776 </v>
   <v>      -0.00287290      -0.05130834      -0.08869406 </v>
   <v>       0.17892124      -0.62958786      -0.00196566 </v>
   <v>      -0.59028366      -0.14520561       0.03536881 </v>
   <v>       0.24877642       0.57807183       0.00730400 </v>
   <v>      -0.00307793       0.08900187      -0.11254534 </v>
   <v>       0.56169822      -0.10970211       0.06579061 </v>
   <v>      -0.28256738       0.48447152       0.12065939 </v>
   <v>       0.01043759       0.03754054       0.15725856 </v>
   <v>      -0.00366122       0.03790715      -0.07598826 </v>
   <v>       0.06682569       0.06024049       0.16702699 </v>
   <v>      -0.05267873       0.05804443      -0.03981793 </v>
   <v>       0.02502169       0.06952164      -0.16829343 </v>
   <v>       0.10524533       0.04239735      -0.05088150 </v>
   <v>       0.05394399       0.07482627       0.12819933 </v>
   <v>       0.05941759       0.07203957      -0.38503818 </v>
   <v>      -0.11133192      -0.04202691       0.14353699 </v>
   <v>       0.11060682      -0.04298133      -0.03900931 </v>
   <v>       0.08587820       0.00880686       0.09500921 </v>
   <v>      -0.08712666      -0.00029073       0.00205956 </v>
   <v>      -0.05417703      -0.07116545       0.17619107 </v>
   <v>      -0.06699884      -0.04946216      -0.02447620 </v>
   <v>       0.04761328      -0.10027905      -0.24411411 </v>
   <v>      -0.03504992      -0.09867876       0.02115415 </v>
   <v>      -0.12539441      -0.00480914      -0.28127574 </v>
   <v>       0.01000792       0.01059983       0.40098778 </v>
  </varray>
  <varray name="stress" >
   <v>     -19.88135863       0.00745615       0.02786853 </v>
   <v>       0.00745616     -19.47927958       0.00194990 </v>
   <v>       0.02786858       0.00195003      -1.75930327 </v>
  </varray>
  <energy>
   <i name="e_fr_energy">   -188.71532648 </i>
   <i name="e_wo_entrp">   -188.57568976 </i>
   <i name="e_0_energy">     -0.27927344 </i>
  </energy>
  <time name="totalsc">  420.74  422.17</time>
 </calculation>
 <calculation>
  <scstep>
   <time name="dav">   23.42   23.47</time>
   <time name="total">   23.95   24.01</time>
   <energy>
    <i name="alphaZ">     82.32726998 </i>
    <i name="ewald">  41293.92753413 </i>
    <i name="hartreedc"> -47292.63842204 </i>
    <i name="XCdc">   -233.85826312 </i>
    <i name="pawpsdc">   3950.03033240 </i>
    <i name="pawaedc">  -3364.54830417 </i>
    <i name="eentropy">     -0.23668355 </i>
    <i name="bandstr">  -1387.08632881 </i>
    <i name="atom">   6761.44252427 </i>
    <i name="e_fr_energy">   -190.64034091 </i>
    <i name="e_wo_entrp">   -190.40365736 </i>
    <i name="e_0_energy">   -190.52199914 </i>
   </energy>
  </scstep>
  <scstep>
   <time name="dav">   27.74   27.80</time>
   <time name="total">   28.26   28.34</time>
   <energy>
    <i name="e_fr_energy">   -190.55802953 </i>
    <i name="e_wo_entrp">   -190.32041718 </i>
    <i name="e_0_energy">   -190.43922336 </i>
   </energy>
  </scstep>
  <scstep>
   <time name="dav">   30.27   30.34</time>
   <time name="total">   30.79   30.87</time>
   <energy>
    <i name="e_fr_energy">   -190.13328267 </i>
    <i name="e_wo_entrp">   -189.88110832 </i>
    <i name="e_0_energy">   -190.00719549 </i>
   </energy>
  </scstep>
  <scstep>
   <time name="dav">   31.22   31.30</time>
   <time name="total">   31.75   31.84</time>
   <energy>
    <i name="e_fr_energy">   -189.92052109 </i>
    <i name="e_wo_entrp">   -189.68435851 </i>
    <i name="e_0_energy">   -189.80243980 </i>
   </energy>
  </scstep>
  <scstep>
   <time name="dav">   30.15   30.22</time>
   <time name="total">   30.68   30.76</time>
   <energy>
    <i name="e_fr_energy">   -189.89573087 </i>
    <i name="e_wo_entrp">   -189.65602606 </i>
    <i name="e_0_energy">   -189.77587846 </i>
   </energy>
  </scstep>
  <scstep>
   <time name="dav">   30.80   30.88</time>
   <time name="total">   31.34   31.42</time>
   <energy>
    <i name="e_fr_energy">   -189.82360726 </i>
    <i name="e_wo_entrp">   -189.58433098 </i>
    <i name="e_0_energy">   -189.70396912 </i>
   </energy>
  </scstep>
  <scstep>
   <time name="dav">   28.74   28.81</time>
   <time name="total">   29.27   29.35</time>
   <energy>
    <i name="e_fr_energy">   -189.81580256 </i>
    <i name="e_wo_entrp">   -189.57687192 </i>
    <i name="e_0_energy">   -189.69633724 </i>
   </energy>
  </scstep>
  <scstep>
   <time name="dav">   30.46   30.54</time>
   <time name="total">   30.99   31.07</time>
   <energy>
    <i name="e_fr_energy">   -189.81685886 </i>
    <i name="e_wo_entrp">   -189.57786085 </i>
    <i name="e_0_energy">   -189.69735986 </i>
   </energy>
  </scstep>
  <scstep>
   <time name="dav">   27.85   27.92</time>
   <time name="total">   28.38   28.46</time>
   <energy>
    <i name="e_fr_energy">   -189.81565696 </i>
    <i name="e_wo_entrp">   -189.57669196 </i>
    <i name="e_0_energy">   -189.69617446 </i>
   </energy>
  </scstep>
  <scstep>
   <time name="dav">   24.91   24.97</time>
   <time name="total">   25.45   25.51</time>
   <energy>
    <i name="e_fr_energy">   -189.81598563 </i>
    <i name="e_wo_entrp">   -189.57692893 </i>
    <i name="e_0_energy">   -189.69645728 </i>
   </energy>
  </scstep>
  <scstep>
   <time name="dav">   23.36   23.42</time>
   <time name="total">   23.89   23.95</time>
   <energy>
    <i name="e_fr_energy">   -189.81576297 </i>
    <i name="e_wo_entrp">   -189.57668940 </i>
    <i name="e_0_energy">   -189.69622619 </i>
   </energy>
  </scstep>
  <scstep>
   <time name="dav">   19.17   19.22</time>
   <time name="total">   19.21   19.27</time>
   <energy>
    <i name="alphaZ">     82.32726998 </i>
    <i name="ewald">  41293.92753413 </i>
    <i name="hartreedc"> -47266.16100734 </i>
    <i name="XCdc">   -235.24459519 </i>
    <i name="pawpsdc">   4038.73929624 </i>
    <i name="pawaedc">  -3454.45484451 </i>
    <i name="eentropy">     -0.23908701 </i>
    <i name="bandstr">  -1410.15287396 </i>
    <i name="atom">   6761.44252427 </i>
    <i name="e_fr_energy">   -189.81578338 </i>
    <i name="e_wo_entrp">   -189.57669637 </i>
    <i name="e_0_energy">   -189.69623988 </i>
   </energy>
  </scstep>
  <structure>
   <crystal>
    <varray name="basis" >
     <v>       8.66615720       4.99976449       0.00000000 </v>
     <v>      -8.66732175       5.00176810       0.00000000 </v>
     <v>       0.00000000       0.00000000      30.00000000 </v>
    </varray>
    <i name="volume">   2600.42028588 </i>
    <varray name="rec_basis" >
     <v>       0.05770338       0.09999140       0.00000000 </v>
     <v>      -0.05768027       0.09997796       0.00000000 </v>
     <v>       0.00000000       0.00000000       0.03333333 </v>
    </varray>
   </crystal>
   <varray name="positions" >
    <v>       0.33034665      -0.00108028      -0.00005176 </v>
    <v>       1.00040430       0.33326948       0.00004519 </v>
    <v>       0.33282904       0.33278156      -0.00009289 </v>
    <v>      -0.00177624      -0.00355913      -0.00004915 </v>
    <v>      -0.00235410       0.66839249       0.00016566 </v>
    <v>       0.67069925       0.66878836      -0.00000900 </v>
    <v>       0.33323107       0.66647279      -0.00008560 </v>
    <v>       0.66859187      -0.00221705      -0.00007729 </v>
    <v>       0.66831504       0.33732743       0.00011841 </v>
    <v>       0.11305700       0.22659628       0.95325500 </v>
    <v>       0.22659825       0.11305042       0.04683868 </v>
    <v>       0.10997165       0.55149385       0.95212615 </v>
    <v>       0.22051312       0.44092902       0.04691045 </v>
    <v>       0.11576449       0.89121058       0.95179923 </v>
    <v>       0.22486353       0.78158692       0.04802087 </v>
    <v>       0.44093889       0.22053475       0.95317130 </v>
    <v>       0.55190155       0.10932267       0.04772456 </v>
    <v>       0.44158139       0.55154665       0.95207896 </v>
    <v>       0.55148585       0.44153494       0.04804274 </v>
    <v>       0.44242783       0.89084889       0.95199418 </v>
    <v>       0.55489942       0.77806602       0.04925443 </v>
    <v>       0.78109441       0.22370102       0.95204781 </v>
    <v>       0.88997117       0.11519131       0.04807075 </v>
    <v>       0.77696976       0.55422348       0.95057058 </v>
    <v>       0.89011028       0.44127105       0.04804467 </v>
    <v>       0.77694579       0.88934448       0.95051711 </v>
    <v>       0.88883317       0.77758647       0.04956886 </v>
   </varray>
  </structure>
  <varray name="forces" >
   <v>      -0.12908485      -0.29922806       0.07853310 </v>
   <v>      -0.00286495       0.00498595      -0.08651198 </v>
   <v>      -0.00686247      -0.03114837      -0.08342205 </v>
   <v>       0.14511540      -0.70732011       0.00371713 </v>
   <v>      -0.59747335      -0.18687876       0.00900726 </v>
   <v>       0.23714055       0.61892081       0.00544541 </v>
   <v>      -0.00937352       0.14182592      -0.10733709 </v>
   <v>       0.57176782      -0.15096135       0.08264203 </v>
   <v>      -0.26381565       0.50193566       0.10834528 </v>
   <v>      -0.00853688       0.07431643      -0.27069706 </v>
   <v>       0.01611360       0.08185418       0.35812224 </v>
   <v>       0.03341217      -0.06668854      -0.30633063 </v>
   <v>       0.02541475      -0.06932832       0.42146606 </v>
   <v>       0.05789332       0.11870607      -0.66248488 </v>
   <v>      -0.01423352       0.08688866       0.43445262 </v>
   <v>      -0.01110670      -0.04736916      -0.32265403 </v>
   <v>      -0.00590046      -0.03965560       0.07543569 </v>
   <v>       0.02411368      -0.08010232      -0.33484626 </v>
   <v>      -0.03482077      -0.09034294       0.46120835 </v>
   <v>      -0.06434183       0.02391264      -0.41130449 </v>
   <v>       0.00323272      -0.01434086       0.55926552 </v>
   <v>       0.00929264       0.04306672      -0.30829721 </v>
   <v>      -0.03841347       0.08858666       0.47350117 </v>
   <v>       0.00353341      -0.01862778      -0.81263458 </v>
   <v>       0.07834740      -0.00251420       0.52814068 </v>
   <v>      -0.02147863       0.00029710      -0.86778703 </v>
   <v>       0.00292960       0.01920957       0.97502475 </v>
  </varray>
  <varray name="stress" >
   <v>     -10.15694099       0.02225138       0.00229162 </v>
   <v>       0.02225144      -9.84402723       0.01428532 </v>
   <v>       0.00229154       0.01428535       6.45715819 </v>
  </varray>
  <energy>
   <i name="e_fr_energy">   -189.81578338 </i>
   <i name="e_wo_entrp">   -189.69623988 </i>
   <i name="e_0_energy">     -0.23908701 </i>
  </energy>
  <time name="totalsc">  375.97  376.96</time>
 </calculation>
 <calculation>
  <scstep>
   <time name="dav">   21.69   21.75</time>
   <time name="total">   22.22   22.27</time>
   <energy>
    <i name="alphaZ">     85.80467642 </i>
    <i name="ewald">  42827.08727409 </i>
    <i name="hartreedc"> -48843.69013291 </i>
    <i name="XCdc">   -232.95186804 </i>
    <i name="pawpsdc">   4038.86875724 </i>
    <i name="pawaedc">  -3454.58256947 </i>
    <i name="eentropy">     -0.21092893 </i>
    <i name="bandstr">  -1373.18779820 </i>
    <i name="atom">   6761.44252427 </i>
    <i name="e_fr_energy">   -191.42006554 </i>
    <i name="e_wo_entrp">   -191.20913660 </i>
    <i name="e_0_energy">   -191.31460107 </i>
   </energy>
  </scstep>
  <scstep>
   <time name="dav">   32.07   32.15</time>
   <time name="total">   32.59   32.67</time>
   <energy>
    <i name="e_fr_energy">   -191.22654944 </i>
    <i name="e_wo_entrp">   -191.01588285 </i>
    <i name="e_0_energy">   -191.12121615 </i>
   </energy>
  </scstep>
  <scstep>
   <time name="dav">   30.12   30.19</time>
   <time name="total">   30.63   30.71</time>
   <energy>
    <i name="e_fr_energy">   -191.37882606 </i>
    <i name="e_wo_entrp">   -191.14650822 </i>
    <i name="e_0_energy">   -191.26266714 </i>
   </energy>
  </scstep>
  <scstep>
   <time name="dav">   30.45   30.52</time>
   <time name="total">   30.97   31.05</time>
   <energy>
    <i name="e_fr_energy">   -190.99766631 </i>
    <i name="e_wo_entrp">   -190.78465042 </i>
    <i name="e_0_energy">   -190.89115837 </i>
   </energy>
  </scstep>
  <scstep>
   <time name="dav">   30.45   30.52</time>
   <time name="total">   30.96   31.04</time>
   <energy>
    <i name="e_fr_energy">   -190.90594734 </i>
    <i name="e_wo_entrp">   -190.69284423 </i>
    <i name="e_0_energy">   -190.79939579 </i>
   </energy>
  </scstep>
  <scstep>
   <time name="dav">   30.42   30.50</time>
   <time name="total">   30.94   31.02</time>
   <energy>
    <i name="e_fr_energy">   -190.87367997 </i>
    <i name="e_wo_entrp">   -190.65557910 </i>
    <i name="e_0_energy">   -190.76462954 </i>
   </energy>
  </scstep>
  <scstep>
   <time name="dav">   30.99   31.06</time>
   <time name="total">   31.51   31.59</time>
   <energy>
    <i name="e_fr_energy">   -190.84737445 </i>
    <i name="e_wo_entrp">   -190.63137869 </i>
    <i name="e_0_energy">   -190.73937657 </i>
   </energy>
  </scstep>
  <scstep>
   <time name="dav">   25.78   25.84</time>
   <time name="total">   26.30   26.37</time>
   <energy>
    <i name="e_fr_energy">   -190.84467711 </i>
    <i name="e_wo_entrp">   -190.62863554 </i>
    <i name="e_0_energy">   -190.73665632 </i>
   </energy>
  </scstep>
  <scstep>
   <time name="dav">   30.99   31.06</time>
   <time name="total">   31.50   31.59</time>
   <energy>
    <i name="e_fr_energy">   -190.84545682 </i>
    <i name="e_wo_entrp">   -190.62942753 </i>
    <i name="e_0_energy">   -190.73744218 </i>
   </energy>
  </scstep>
  <scstep>
   <time name="dav">   26.60   26.66</time>
   <time name="total">   27.12   27.19</time>
   <energy>
    <i name="e_fr_energy">   -190.84506045 </i>
    <i name="e_wo_entrp">   -190.62906672 </i>
    <i name="e_0_energy">   -190.73706358 </i>
   </energy>
  </scstep>
  <scstep>
   <time name="dav">   25.23   25.29</time>
   <time name="total">   25.75   25.82</time>
   <energy>
    <i name="e_fr_energy">   -190.84479656 </i>
    <i name="e_wo_entrp">   -190.62873216 </i>
    <i name="e_0_energy">   -190.73676436 </i>
   </energy>
  </scstep>
  <scstep>
   <time name="dav">   18.49   18.54</time>
   <time name="total">   18.53   18.58</time>
   <energy>
    <i name="alphaZ">     85.80467642 </i>
    <i name="ewald">  42827.08727409 </i>
    <i name="hartreedc"> -48815.15126420 </i>
    <i name="XCdc">   -234.27339880 </i>
    <i name="pawpsdc">   4064.77925968 </i>
    <i name="pawaedc">  -3480.69189680 </i>
    <i name="eentropy">     -0.21607981 </i>
    <i name="bandstr">  -1399.62589669 </i>
    <i name="atom">   6761.44252427 </i>
    <i name="e_fr_energy">   -190.84480183 </i>
    <i name="e_wo_entrp">   -190.62872202 </i>
    <i name="e_0_energy">   -190.73676192 </i>
   </energy>
  </scstep>
  <structure>
   <crystal>
    <varray name="basis" >
     <v>       8.48502689       4.90075527       0.00000000 </v>
     <v>      -8.48511833       4.90090135       0.00000000 </v>
     <v>       0.00000000       0.00000000      30.00000000 </v>
    </varray>
    <i name="volume">   2495.03304319 </i>
    <varray name="rec_basis" >
     <v>       0.05892789       0.10202412       0.00000000 </v>
     <v>      -0.05892614       0.10202302       0.00000000 </v>
     <v>       0.00000000       0.00000000       0.03333333 </v>
    </varray>
   </crystal>
   <varray name="positions" >
    <v>       0.32806315      -0.00256422       0.00012147 </v>
    <v>       1.00035116       0.33332142      -0.00014417 </v>
    <v>       0.33265382       0.33266751      -0.00026116 </v>
    <v>      -0.00592685      -0.00866079      -0.00003660 </v>
    <v>      -0.00580050       0.66928755       0.00016183 </v>
    <v>       0.67552025       0.67192764       0.00000069 </v>
    <v>       0.33420906       0.66753663      -0.00030345 </v>
    <v>       0.66962489      -0.00534762       0.00010824 </v>
    <v>       0.67057676       0.34144226       0.00033229 </v>
    <v>       0.11355650       0.22721228       0.95232929 </v>
    <v>       0.22730810       0.11358650       0.04795069 </v>
    <v>       0.10930825       0.55068552       0.95108791 </v>
    <v>       0.21996434       0.43997082       0.04817684 </v>
    <v>       0.11688839       0.89182070       0.95000562 </v>
    <v>       0.22529524       0.78246683       0.04933466 </v>
    <v>       0.44020166       0.22006595       0.95211846 </v>
    <v>       0.55125741       0.10891008       0.04827362 </v>
    <v>       0.44126709       0.55066654       0.95097739 </v>
    <v>       0.55046496       0.44118630       0.04942464 </v>
    <v>       0.44216567       0.89148620       0.95071042 </v>
    <v>       0.55491667       0.77779872       0.05088803 </v>
    <v>       0.78177588       0.22413175       0.95099600 </v>
    <v>       0.89077458       0.11618975       0.04947621 </v>
    <v>       0.77700672       0.55436230       0.94840260 </v>
    <v>       0.89078278       0.44104919       0.04957097 </v>
    <v>       0.77703299       0.88928662       0.94821957 </v>
    <v>       0.88897547       0.77772802       0.05207786 </v>
   </varray>
  </structure>
  <varray name="forces" >
   <v>      -0.12054805      -0.32696717       0.07689924 </v>
   <v>      -0.02852001       0.00407981      -0.07703906 </v>
   <v>      -0.00619875      -0.06138380      -0.04581633 </v>
   <v>       0.09410648      -0.67321547       0.00790437 </v>
   <v>      -0.55164898      -0.22059399      -0.02533035 </v>
   <v>       0.20038930       0.61181782       0.01076826 </v>
   <v>      -0.01033085       0.16960251      -0.07071309 </v>
   <v>       0.64884575      -0.19787878       0.05629117 </v>
   <v>      -0.31045453       0.54710552       0.06493836 </v>
   <v>       0.06474903      -0.06852777      -0.19368445 </v>
   <v>      -0.04767992      -0.05516031       0.25365087 </v>
   <v>      -0.07903783      -0.00331802      -0.15746968 </v>
   <v>       0.00983722      -0.01427073       0.28983195 </v>
   <v>      -0.02098284      -0.01997499      -0.47966619 </v>
   <v>      -0.04146781      -0.04019260       0.27738013 </v>
   <v>       0.01335170       0.01592211      -0.21506659 </v>
   <v>       0.02750246       0.04124805      -0.08422635 </v>
   <v>       0.06907489       0.05613176      -0.19586841 </v>
   <v>      -0.07099932       0.04918172       0.30752777 </v>
   <v>      -0.02727773       0.06219336      -0.28972263 </v>
   <v>       0.10196661      -0.02867452       0.40198292 </v>
   <v>      -0.00151319      -0.01637432      -0.12046189 </v>
   <v>       0.07081334       0.02454495       0.32295073 </v>
   <v>      -0.04484348       0.04452097      -0.60249279 </v>
   <v>      -0.00117930       0.08710658       0.39973814 </v>
   <v>       0.05841742      -0.00072060      -0.69724572 </v>
   <v>       0.00362837       0.01379791       0.78493960 </v>
  </varray>
  <varray name="stress" >
   <v>      -5.70024314      -0.00303796       0.02312337 </v>
   <v>      -0.00303784      -5.55261971       0.00706379 </v>
   <v>       0.02312329       0.00706389       4.47830910 </v>
  </varray>
  <energy>
   <i name="e_fr_energy">   -190.84480183 </i>
   <i name="e_wo_entrp">   -190.73676192 </i>
   <i name="e_0_energy">     -0.21607981 </i>
  </energy>
  <time name="totalsc">  381.28  382.29</time>
 </calculation>
 <calculation>
  <scstep>
   <time name="dav">   21.62   21.67</time>
   <time name="total">   22.12   22.18</time>
   <energy>
    <i name="alphaZ">     89.96786972 </i>
    <i name="ewald">  44571.87460034 </i>
    <i name="hartreedc"> -50612.99481853 </i>
    <i name="XCdc">   -231.96130148 </i>
    <i name="pawpsdc">   4064.76462411 </i>
    <i name="pawaedc">  -3480.67322723 </i>
    <i name="eentropy">     -0.21471756 </i>
    <i name="bandstr">  -1354.35622421 </i>
    <i name="atom">   6761.44252427 </i>
    <i name="e_fr_energy">   -192.15067057 </i>
    <i name="e_wo_entrp">   -191.93595301 </i>
    <i name="e_0_energy">   -192.04331179 </i>
   </energy>
  </scstep>
  <scstep>
   <time name="dav">   27.23   27.30</time>
   <time name="total">   27.73   27.81</time>
   <energy>
    <i name="e_fr_energy">   -191.93412894 </i>
    <i name="e_wo_entrp">   -191.71743162 </i>
    <i name="e_0_energy">   -191.82578028 </i>
   </energy>
  </scstep>
  <scstep>
   <time name="dav">   28.97   29.04</time>
   <time name="total">   29.47   29.55</time>
   <energy>
    <i name="e_fr_energy">   -191.79841196 </i>
    <i name="e_wo_entrp">   -191.57175411 </i>
    <i name="e_0_energy">   -191.68508303 </i>
   </energy>
  </scstep>
  <scstep>
   <time name="dav">   30.37   30.44</time>
   <time name="total">   30.87   30.95</time>
   <energy>
    <i name="e_fr_energy">   -191.82693907 </i>
    <i name="e_wo_entrp">   -191.62187024 </i>
    <i name="e_0_energy">   -191.72440466 </i>
   </energy>
  </scstep>
  <scstep>
   <time name="dav">   30.29   30.36</time>
   <time name="total">   30.79   30.88</time>
   <energy>
    <i name="e_fr_energy">   -191.55637087 </i>
    <i name="e_wo_entrp">   -191.33396887 </i>
    <i name="e_0_energy">   -191.44516987 </i>
   </energy>
  </scstep>
  <scstep>
   <time name="dav">   28.78   28.85</time>
   <time name="total">   29.29   29.36</time>
   <energy>
    <i name="e_fr_energy">   -191.54676408 </i>
    <i name="e_wo_entrp">   -191.32553459 </i>
    <i name="e_0_energy">   -191.43614933 </i>
   </energy>
  </scstep>
  <scstep>
   <time name="dav">   29.71   29.78</time>
   <time name="total">   30.21   30.29</time>
   <energy>
    <i name="e_fr_energy">   -191.55238893 </i>
    <i name="e_wo_entrp">   -191.32971350 </i>
    <i name="e_0_energy">   -191.44105122 </i>
   </energy>
  </scstep>
  <scstep>
   <time name="dav">   28.82   28.88</time>
   <time name="total">   29.32   29.40</time>
   <energy>
    <i name="e_fr_energy">   -191.54149191 </i>
    <i name="e_wo_entrp">   -191.32021836 </i>
    <i name="e_0_energy">   -191.43085513 </i>
   </energy>
  </scstep>
  <scstep>
   <time name="dav">   28.59   28.66</time>
   <time name="total">   29.10   29.17</time>
   <energy>
    <i name="e_fr_energy">   -191.54236544 </i>
    <i name="e_wo_entrp">   -191.32079732 </i>
    <i name="e_0_energy">   -191.43158138 </i>
   </energy>
  </scstep>
  <scstep>
   <time name="dav">   29.03   29.10</time>
   <time name="total">   29.53   29.61</time>
   <energy>
    <i name="e_fr_energy">   -191.54179718 </i>
    <i name="e_wo_entrp">   -191.32044715 </i>
    <i name="e_0_energy">   -191.43112217 </i>
   </energy>
  </scstep>
  <scstep>
   <time name="dav">   25.48   25.54</time>
   <time name="total">   25.98   26.05</time>
   <energy>
    <i name="e_fr_energy">   -191.54155306 </i>
    <i name="e_wo_entrp">   -191.32006993 </i>
    <i name="e_0_energy">   -191.43081150 </i>
   </energy>
  </scstep>
  <scstep>
   <time name="dav">   18.34   18.38</time>
   <time name="total">   18.38   18.43</time>
   <energy>
    <i name="alphaZ">     89.96786972 </i>
    <i name="ewald">  44571.87460034 </i>
    <i name="hartreedc"> -50581.11909157 </i>
    <i name="XCdc">   -233.39531578 </i>
    <i name="pawpsdc">   4086.83052919 </i>
    <i name="pawaedc">  -3502.85774735 </i>
    <i name="eentropy">     -0.22151343 </i>
    <i name="bandstr">  -1384.06337495 </i>
    <i name="atom">   6761.44252427 </i>
    <i name="e_fr_energy">   -191.54151956 </i>
    <i name="e_wo_entrp">   -191.32000613 </i>
    <i name="e_0_energy">   -191.43076284 </i>
   </energy>
  </scstep>
  <structure>
   <crystal>
    <varray name="basis" >
     <v>       8.28253389       4.78855285       0.00000000 </v>
     <v>      -8.28235847       4.78823673       0.00000000 </v>
     <v>       0.00000000       0.00000000      30.00000000 </v>
    </varray>
    <i name="volume">   2379.57732686 </i>
    <varray name="rec_basis" >
     <v>       0.06036665       0.10441802       0.00000000 </v>
     <v>      -0.06037063       0.10442023       0.00000000 </v>
     <v>       0.00000000       0.00000000       0.03333333 </v>
    </varray>
   </crystal>
   <varray name="positions" >
    <v>       0.32339592      -0.00569086       0.00043554 </v>
    <v>       1.00014482       0.33355771      -0.00046240 </v>
    <v>       0.33197064       0.33208454      -0.00045515 </v>
    <v>      -0.01364781      -0.01767434      -0.00000237 </v>
    <v>      -0.01240078       0.67045792       0.00005518 </v>
    <v>       0.68440985       0.67800294       0.00003838 </v>
    <v>       0.33627049       0.66976002      -0.00059458 </v>
    <v>       0.67165650      -0.01221747       0.00035853 </v>
    <v>       0.67504906       0.35007935       0.00059752 </v>
    <v>       0.11341617       0.22636999       0.95112285 </v>
    <v>       0.22674827       0.11350656       0.04941223 </v>
    <v>       0.10831301       0.55068699       0.94994306 </v>
    <v>       0.21955668       0.43914569       0.04982010 </v>
    <v>       0.11698953       0.89196063       0.94756050 </v>
    <v>       0.22468541       0.78276780       0.05096516 </v>
    <v>       0.43991453       0.21984874       0.95079061 </v>
    <v>       0.55136537       0.10890889       0.04846443 </v>
    <v>       0.44227282       0.55035944       0.94968235 </v>
    <v>       0.55000525       0.44211473       0.05118573 </v>
    <v>       0.44242791       0.89268082       0.94902991 </v>
    <v>       0.55531785       0.77667558       0.05307547 </v>
    <v>       0.78209608       0.22424808       0.94996547 </v>
    <v>       0.89199533       0.11653759       0.05129399 </v>
    <v>       0.77733123       0.55536195       0.94539116 </v>
    <v>       0.89220364       0.44197275       0.05168687 </v>
    <v>       0.77753938       0.88879482       0.94484006 </v>
    <v>       0.88918730       0.77791358       0.05579931 </v>
   </varray>
  </structure>
  <varray name="forces" >
   <v>      -0.19015915      -0.42735223       0.00302768 </v>
   <v>      -0.05366755       0.02959545      -0.02079805 </v>
   <v>       0.02234316      -0.13930946      -0.04351238 </v>
   <v>      -0.00503664      -0.04441042       0.03413707 </v>
   <v>      -0.06269680      -0.06809987       0.08027661 </v>
   <v>      -0.05198598       0.01480140       0.02645681 </v>
   <v>       0.04796128       0.20293672      -0.05427787 </v>
   <v>       0.51463836      -0.18741979      -0.07860242 </v>
   <v>      -0.32133772       0.48483257       0.02686477 </v>
   <v>       0.10361295      -0.20581605       0.03952064 </v>
   <v>      -0.09641429      -0.19414750       0.00955125 </v>
   <v>      -0.18030170       0.09860055       0.10127145 </v>
   <v>      -0.02184431       0.03890960      -0.01639262 </v>
   <v>      -0.09468596      -0.14039456      -0.11703056 </v>
   <v>      -0.03389377      -0.17619127      -0.01605466 </v>
   <v>       0.06578033       0.07863112       0.09595733 </v>
   <v>       0.12118749       0.18409298      -0.43125030 </v>
   <v>       0.06020810       0.19136419       0.09761023 </v>
   <v>      -0.09047722       0.21851258       0.02093633 </v>
   <v>       0.03022864       0.11919184       0.00791195 </v>
   <v>       0.21670847      -0.05059696       0.16664377 </v>
   <v>      -0.04036140      -0.12832141       0.21520205 </v>
   <v>       0.15959174      -0.09045186       0.02187523 </v>
   <v>      -0.12796410       0.06784467      -0.24333114 </v>
   <v>      -0.08402366       0.14196529       0.09021776 </v>
   <v>       0.07803115      -0.02386790      -0.27810821 </v>
   <v>       0.03455859       0.00510032       0.26189728 </v>
  </varray>
  <varray name="stress" >
   <v>       0.06693795      -0.01023134       0.33720455 </v>
   <v>      -0.01023129       0.65635540       0.01354540 </v>
   <v>       0.33720456       0.01354550      -0.88008594 </v>
  </varray>
  <energy>
   <i name="e_fr_energy">   -191.54151956 </i>
   <i name="e_wo_entrp">   -191.43076284 </i>
   <i name="e_0_energy">     -0.22151343 </i>
  </energy>
  <time name="totalsc">  374.91  375.90</time>
 </calculation>
 <calculation>
  <scstep>
   <time name="dav">   21.54   21.59</time>
   <time name="total">   22.04   22.10</time>
   <energy>
    <i name="alphaZ">     89.74673548 </i>
    <i name="ewald">  44459.88943054 </i>
    <i name="hartreedc"> -50467.20784065 </i>
    <i name="XCdc">   -233.60011123 </i>
    <i name="pawpsdc">   4086.68793241 </i>
    <i name="pawaedc">  -3502.70984234 </i>
    <i name="eentropy">     -0.22205397 </i>
    <i name="bandstr">  -1385.64532711 </i>
    <i name="atom">   6761.44252427 </i>
    <i name="e_fr_energy">   -191.61855259 </i>
    <i name="e_wo_entrp">   -191.39649863 </i>
    <i name="e_0_energy">   -191.50752561 </i>
   </energy>
  </scstep>
  <scstep>
   <time name="dav">   33.03   33.11</time>
   <time name="total">   33.53   33.62</time>
   <energy>
    <i name="e_fr_energy">   -191.67629428 </i>
    <i name="e_wo_entrp">   -191.44693910 </i>
    <i name="e_0_energy">   -191.56161669 </i>
   </energy>
  </scstep>
  <scstep>
   <time name="dav">   30.46   30.53</time>
   <time name="total">   30.96   31.04</time>
   <energy>
    <i name="e_fr_energy">   -191.63166256 </i>
    <i name="e_wo_entrp">   -191.40891036 </i>
    <i name="e_0_energy">   -191.52028646 </i>
   </energy>
  </scstep>
  <scstep>
   <time name="dav">   25.94   26.00</time>
   <time name="total">   26.44   26.51</time>
   <energy>
    <i name="e_fr_energy">   -191.63449442 </i>
    <i name="e_wo_entrp">   -191.41252377 </i>
    <i name="e_0_energy">   -191.52350910 </i>
   </energy>
  </scstep>
  <scstep>
   <time name="dav">   28.21   28.27</time>
   <time name="total">   28.72   28.79</time>
   <energy>
    <i name="e_fr_energy">   -191.62841678 </i>
    <i name="e_wo_entrp">   -191.40440796 </i>
    <i name="e_0_energy">   -191.51641237 </i>
   </energy>
  </scstep>
  <scstep>
   <time name="dav">   27.87   27.94</time>
   <time name="total">   28.38   28.45</time>
   <energy>
    <i name="e_fr_energy">   -191.62952248 </i>
    <i name="e_wo_entrp">   -191.40647516 </i>
    <i name="e_0_energy">   -191.51799882 </i>
   </energy>
  </scstep>
  <scstep>
   <time name="dav">   27.83   27.89</time>
   <time name="total">   28.34   28.41</time>
   <energy>
    <i name="e_fr_energy">   -191.62819596 </i>
    <i name="e_wo_entrp">   -191.40504413 </i>
    <i name="e_0_energy">   -191.51662004 </i>
   </energy>
  </scstep>
  <scstep>
   <time name="dav">   25.20   25.26</time>
   <time name="total">   25.70   25.77</time>
   <energy>
    <i name="e_fr_energy">   -191.62768805 </i>
    <i name="e_wo_entrp">   -191.40451829 </i>
    <i name="e_0_energy">   -191.51610317 </i>
   </energy>
  </scstep>
  <scstep>
   <time name="dav">   18.71   18.75</time>
   <time name="total">   18.74   18.80</time>
   <energy>
    <i name="alphaZ">     89.74673548 </i>
    <i name="ewald">  44459.88943054 </i>
    <i name="hartreedc"> -50470.04129016 </i>
    <i name="XCdc">   -233.50571745 </i>
    <i name="pawpsdc">   4083.51133886 </i>
    <i name="pawaedc">  -3499.49009839 </i>
    <i name="eentropy">     -0.22321458 </i>
    <i name="bandstr">  -1382.95740956 </i>
    <i name="atom">   6761.44252427 </i>
    <i name="e_fr_energy">   -191.62770097 </i>
    <i name="e_wo_entrp">   -191.40448640 </i>
    <i name="e_0_energy">   -191.51609369 </i>
   </energy>
  </scstep>
  <structure>
   <crystal>
    <varray name="basis" >
     <v>       8.28646507       4.79777021       0.00000000 </v>
     <v>      -8.28655308       4.79790930       0.00000000 </v>
     <v>       0.00000000       0.00000000      30.00000000 </v>
    </varray>
    <i name="volume">   2385.44055983 </i>
    <varray name="rec_basis" >
     <v>       0.06033991       0.10421412       0.00000000 </v>
     <v>      -0.06033817       0.10421301       0.00000000 </v>
     <v>       0.00000000       0.00000000       0.03333333 </v>
    </varray>
   </crystal>
   <varray name="positions" >
    <v>       0.32090044      -0.00715517       0.00043281 </v>
    <v>       1.00014355       0.33384595      -0.00048698 </v>
    <v>       0.33137289       0.33135917      -0.00051772 </v>
    <v>      -0.01369492      -0.01766377       0.00004955 </v>
    <v>      -0.01275233       0.67027693       0.00018181 </v>
    <v>       0.68412935       0.67807866       0.00007847 </v>
    <v>       0.33733831       0.67055536      -0.00067156 </v>
    <v>       0.67214436      -0.01440763       0.00023084 </v>
    <v>       0.67639327       0.35312902       0.00063278 </v>
    <v>       0.11270925       0.22509602       0.95121877 </v>
    <v>       0.22554444       0.11283430       0.04938598 </v>
    <v>       0.10831508       0.55167709       0.95013428 </v>
    <v>       0.21969813       0.43942351       0.04974894 </v>
    <v>       0.11603474       0.89153900       0.94744479 </v>
    <v>       0.22374900       0.78199483       0.05089424 </v>
    <v>       0.44049502       0.22005534       0.95097713 </v>
    <v>       0.55260256       0.10946585       0.04778524 </v>
    <v>       0.44334704       0.55113245       0.94987135 </v>
    <v>       0.55082936       0.44340703       0.05116878 </v>
    <v>       0.44308825       0.89314169       0.94908942 </v>
    <v>       0.55566960       0.77585098       0.05327302 </v>
    <v>       0.78134610       0.22373230       0.95033064 </v>
    <v>       0.89196912       0.11563630       0.05127725 </v>
    <v>       0.77729247       0.55602317       0.94509461 </v>
    <v>       0.89261701       0.44287612       0.05176895 </v>
    <v>       0.77762884       0.88847339       0.94449816 </v>
    <v>       0.88930352       0.77783656       0.05610833 </v>
   </varray>
  </structure>
  <varray name="forces" >
   <v>      -0.25498497      -0.49159620       0.00156558 </v>
   <v>      -0.05241655       0.01245784      -0.03276417 </v>
   <v>       0.03858758      -0.16385718      -0.05808790 </v>
   <v>       0.04005913      -0.12843930       0.03015994 </v>
   <v>      -0.15403971      -0.10027629       0.01394944 </v>
   <v>      -0.02467136       0.12023704       0.02876714 </v>
   <v>       0.09381982       0.25202859      -0.04554505 </v>
   <v>       0.54574666      -0.19279495       0.00403982 </v>
   <v>      -0.33531094       0.52670360       0.02519971 </v>
   <v>       0.04332644      -0.10253998       0.04458239 </v>
   <v>      -0.04871595      -0.11235072       0.03090258 </v>
   <v>      -0.08020327       0.08607409       0.11597428 </v>
   <v>      -0.01807402       0.02752518      -0.05254664 </v>
   <v>      -0.03227614      -0.08108565      -0.10960247 </v>
   <v>      -0.00704565      -0.10208746      -0.00128109 </v>
   <v>       0.06004293       0.05476343       0.13606325 </v>
   <v>       0.07497438       0.13796020      -0.49732851 </v>
   <v>       0.04014630       0.07984669       0.07443087 </v>
   <v>      -0.07899430       0.12060329       0.04360174 </v>
   <v>       0.01361900       0.08768853       0.03103730 </v>
   <v>       0.11399320      -0.03346435       0.14722499 </v>
   <v>      -0.03525035      -0.09196202       0.22585946 </v>
   <v>       0.07665387      -0.07283884       0.00318450 </v>
   <v>      -0.07765897       0.08099591      -0.17438341 </v>
   <v>      -0.04114182       0.09139492       0.09480902 </v>
   <v>       0.09519362      -0.00513829      -0.21801025 </v>
   <v>       0.00462108       0.00015193       0.13819750 </v>
  </varray>
  <varray name="stress" >
   <v>      -0.05299513      -0.10335939       0.04331923 </v>
   <v>      -0.10335945      -0.09747148      -0.06364389 </v>
   <v>       0.04331904      -0.06364392      -1.46150216 </v>
  </varray>
  <energy>
   <i name="e_fr_energy">   -191.62770097 </i>
   <i name="e_wo_entrp">   -191.51609369 </i>
   <i name="e_0_energy">     -0.22321458 </i>
  </energy>
  <time name="totalsc">  284.86  285.62</time>
 </calculation>
 <calculation>
  <scstep>
   <time name="dav">   21.59   21.64</time>
   <time name="total">   22.10   22.15</time>
   <energy>
    <i name="alphaZ">     89.78367320 </i>
    <i name="ewald">  44482.02642652 </i>
    <i name="hartreedc"> -50492.28361678 </i>
    <i name="XCdc">   -233.46276133 </i>
    <i name="pawpsdc">   4083.22129425 </i>
    <i name="pawaedc">  -3499.19719839 </i>
    <i name="eentropy">     -0.22141271 </i>
    <i name="bandstr">  -1383.00638628 </i>
    <i name="atom">   6761.44252427 </i>
    <i name="e_fr_energy">   -191.69745724 </i>
    <i name="e_wo_entrp">   -191.47604453 </i>
    <i name="e_0_energy">   -191.58675089 </i>
   </energy>
  </scstep>
  <scstep>
   <time name="dav">   31.33   31.40</time>
   <time name="total">   31.83   31.92</time>
   <energy>
    <i name="e_fr_energy">   -191.73025769 </i>
    <i name="e_wo_entrp">   -191.50205005 </i>
    <i name="e_0_energy">   -191.61615387 </i>
   </energy>
  </scstep>
  <scstep>
   <time name="dav">   30.67   30.75</time>
   <time name="total">   31.18   31.26</time>
   <energy>
    <i name="e_fr_energy">   -191.70378069 </i>
    <i name="e_wo_entrp">   -191.48184467 </i>
    <i name="e_0_energy">   -191.59281268 </i>
   </energy>
  </scstep>
  <scstep>
   <time name="dav">   27.94   28.01</time>
   <time name="total">   28.44   28.52</time>
   <energy>
    <i name="e_fr_energy">   -191.70451339 </i>
    <i name="e_wo_entrp">   -191.48361409 </i>
    <i name="e_0_energy">   -191.59406374 </i>
   </energy>
  </scstep>
  <scstep>
   <time name="dav">   28.14   28.21</time>
   <time name="total">   28.64   28.72</time>
   <energy>
    <i name="e_fr_energy">   -191.70159816 </i>
    <i name="e_wo_entrp">   -191.47860566 </i>
    <i name="e_0_energy">   -191.59010191 </i>
   </energy>
  </scstep>
  <scstep>
   <time name="dav">   27.77   27.83</time>
   <time name="total">   28.27   28.35</time>
   <energy>
    <i name="e_fr_energy">   -191.70187543 </i>
    <i name="e_wo_entrp">   -191.47944905 </i>
    <i name="e_0_energy">   -191.59066224 </i>
   </energy>
  </scstep>
  <scstep>
   <time name="dav">   25.45   25.51</time>
   <time name="total">   25.96   26.03</time>
   <energy>
    <i name="e_fr_energy">   -191.70157779 </i>
    <i name="e_wo_entrp">   -191.47908467 </i>
    <i name="e_0_energy">   -191.59033123 </i>
   </energy>
  </scstep>
  <scstep>
[...]
      <set comment="kpoint 31">
       <r>  -17.4774    1.0000 </r>
       <r>  -17.2857    1.0000 </r>
       <r>  -16.9054    1.0000 </r>
       <r>  -16.6108    1.0000 </r>
       <r>  -16.4969    1.0000 </r>
       <r>  -16.3880    1.0000 </r>
       <r>  -16.3132    1.0000 </r>
       <r>  -16.1865    1.0000 </r>
       <r>  -16.1013    1.0000 </r>
       <r>  -16.0437    1.0000 </r>
       <r>  -15.9208    1.0000 </r>
       <r>  -15.9127    1.0000 </r>
       <r>  -15.8061    1.0000 </r>
       <r>  -15.7602    1.0000 </r>
       <r>  -15.5920    1.0000 </r>
       <r>  -15.5073    1.0000 </r>
       <r>  -15.3938    1.0000 </r>
       <r>  -15.2874    1.0000 </r>
       <r>   -9.7144    1.0000 </r>
       <r>   -9.4180    1.0000 </r>
       <r>   -9.2947    1.0000 </r>
       <r>   -8.9435    1.0000 </r>
       <r>   -8.7938    1.0000 </r>
       <r>   -8.7351    1.0000 </r>
       <r>   -8.5397    1.0000 </r>
       <r>   -8.4437    1.0000 </r>
       <r>   -8.4060    1.0000 </r>
       <r>   -8.3221    1.0000 </r>
       <r>   -8.3115    1.0000 </r>
       <r>   -8.1664    1.0000 </r>
       <r>   -8.1217    1.0000 </r>
       <r>   -8.0797    1.0000 </r>
       <r>   -8.0061    1.0000 </r>
       <r>   -7.8596    1.0000 </r>
       <r>   -7.8090    1.0000 </r>
       <r>   -7.6474    1.0000 </r>
       <r>   -7.5782    1.0000 </r>
       <r>   -7.4905    1.0000 </r>
       <r>   -7.2826    1.0000 </r>
       <r>   -7.2291    1.0000 </r>
       <r>   -7.1446    1.0000 </r>
       <r>   -7.1235    1.0000 </r>
       <r>   -7.0328    1.0000 </r>
       <r>   -6.9792    1.0000 </r>
       <r>   -6.8362    1.0000 </r>
       <r>   -6.7891    1.0000 </r>
       <r>   -6.6453    1.0000 </r>
       <r>   -6.5829    1.0000 </r>
       <r>   -6.5304    1.0000 </r>
       <r>   -6.4823    1.0000 </r>
       <r>   -6.4198    1.0000 </r>
       <r>   -6.3719    1.0000 </r>
       <r>   -6.2902    1.0000 </r>
       <r>   -6.2286    1.0000 </r>
       <r>   -6.1934    1.0000 </r>
       <r>   -6.0669    1.0000 </r>
       <r>   -6.0056    1.0000 </r>
       <r>   -5.9226    1.0000 </r>
       <r>   -5.8683    1.0000 </r>
       <r>   -5.7938    1.0000 </r>
       <r>   -5.7455    1.0000 </r>
       <r>   -5.6472    1.0000 </r>
       <r>   -5.5978    1.0000 </r>
       <r>   -5.3982    1.0000 </r>
       <r>   -5.2694    1.0000 </r>
       <r>   -5.1747    1.0000 </r>
       <r>   -5.0595    1.0000 </r>
       <r>   -4.9095    1.0000 </r>
       <r>   -4.8004    1.0000 </r>
       <r>   -4.7623    1.0000 </r>
       <r>   -4.5278    1.0000 </r>
       <r>   -4.4539    1.0000 </r>
       <r>   -4.3281    1.0000 </r>
       <r>   -4.2355    1.0000 </r>
       <r>   -4.1620    1.0000 </r>
       <r>   -4.0433    1.0000 </r>
       <r>   -3.8980    1.0000 </r>
       <r>   -3.6469    0.9975 </r>
       <r>   -3.4870    0.9526 </r>
       <r>   -3.2736    0.5644 </r>
       <r>   -2.8977    0.0063 </r>
       <r>   -2.7185    0.0001 </r>
       <r>   -2.6180    0.0000 </r>
       <r>   -2.5203    0.0000 </r>
       <r>   -2.3977    0.0000 </r>
       <r>   -2.3441    0.0000 </r>
       <r>   -2.2775    0.0000 </r>
       <r>   -2.0981    0.0000 </r>
       <r>   -1.9999    0.0000 </r>
       <r>   -1.9698    0.0000 </r>
       <r>   -1.8760    0.0000 </r>
       <r>   -1.7612    0.0000 </r>
       <r>   -1.4984    0.0000 </r>
       <r>   -1.2758    0.0000 </r>
       <r>   -1.2143    0.0000 </r>
       <r>   -1.1037    0.0000 </r>
       <r>   -1.0713    0.0000 </r>
       <r>   -1.0005    0.0000 </r>
       <r>   -0.9570    0.0000 </r>
       <r>   -0.8871    0.0000 </r>
       <r>   -0.8617    0.0000 </r>
       <r>   -0.7520    0.0000 </r>
       <r>   -0.7194    0.0000 </r>
       <r>   -0.5931    0.0000 </r>
       <r>   -0.5201    0.0000 </r>
       <r>   -0.3989    0.0000 </r>
       <r>   -0.2512    0.0000 </r>
       <r>   -0.1639    0.0000 </r>
       <r>    0.0527    0.0000 </r>
       <r>    0.2279    0.0000 </r>
       <r>    0.4269    0.0000 </r>
       <r>    0.6127    0.0000 </r>
       <r>    0.7524    0.0000 </r>
       <r>    0.9880    0.0000 </r>
       <r>    1.0774    0.0000 </r>
       <r>    1.2102    0.0000 </r>
       <r>    1.4096    0.0000 </r>
       <r>    2.1184    0.0000 </r>
       <r>    2.2747    0.0000 </r>
       <r>    2.3731    0.0000 </r>
      </set>
      <set comment="kpoint 32">
       <r>  -17.4992    1.0000 </r>
       <r>  -17.1973    1.0000 </r>
       <r>  -17.0241    1.0000 </r>
       <r>  -16.6122    1.0000 </r>
       <r>  -16.4076    1.0000 </r>
       <r>  -16.3534    1.0000 </r>
       <r>  -16.2914    1.0000 </r>
       <r>  -16.2415    1.0000 </r>
       <r>  -16.1203    1.0000 </r>
       <r>  -16.0774    1.0000 </r>
       <r>  -15.9502    1.0000 </r>
       <r>  -15.8947    1.0000 </r>
       <r>  -15.8082    1.0000 </r>
       <r>  -15.7311    1.0000 </r>
       <r>  -15.5973    1.0000 </r>
       <r>  -15.5020    1.0000 </r>
       <r>  -15.4078    1.0000 </r>
       <r>  -15.2717    1.0000 </r>
       <r>   -9.6721    1.0000 </r>
       <r>   -9.5134    1.0000 </r>
       <r>   -9.3544    1.0000 </r>
       <r>   -8.9172    1.0000 </r>
       <r>   -8.7165    1.0000 </r>
       <r>   -8.5917    1.0000 </r>
       <r>   -8.5451    1.0000 </r>
       <r>   -8.4596    1.0000 </r>
       <r>   -8.3849    1.0000 </r>
       <r>   -8.3621    1.0000 </r>
       <r>   -8.2892    1.0000 </r>
       <r>   -8.2353    1.0000 </r>
       <r>   -8.1341    1.0000 </r>
       <r>   -8.1032    1.0000 </r>
       <r>   -8.0253    1.0000 </r>
       <r>   -7.9204    1.0000 </r>
       <r>   -7.7660    1.0000 </r>
       <r>   -7.7103    1.0000 </r>
       <r>   -7.5417    1.0000 </r>
       <r>   -7.4466    1.0000 </r>
       <r>   -7.3171    1.0000 </r>
       <r>   -7.2560    1.0000 </r>
       <r>   -7.1940    1.0000 </r>
       <r>   -7.0806    1.0000 </r>
       <r>   -7.0011    1.0000 </r>
       <r>   -6.9065    1.0000 </r>
       <r>   -6.8669    1.0000 </r>
       <r>   -6.7479    1.0000 </r>
       <r>   -6.6903    1.0000 </r>
       <r>   -6.6110    1.0000 </r>
       <r>   -6.4986    1.0000 </r>
       <r>   -6.4642    1.0000 </r>
       <r>   -6.4416    1.0000 </r>
       <r>   -6.3741    1.0000 </r>
       <r>   -6.2941    1.0000 </r>
       <r>   -6.2471    1.0000 </r>
       <r>   -6.1709    1.0000 </r>
       <r>   -6.0539    1.0000 </r>
       <r>   -5.9641    1.0000 </r>
       <r>   -5.9206    1.0000 </r>
       <r>   -5.8837    1.0000 </r>
       <r>   -5.7632    1.0000 </r>
       <r>   -5.6887    1.0000 </r>
       <r>   -5.6148    1.0000 </r>
       <r>   -5.5449    1.0000 </r>
       <r>   -5.4550    1.0000 </r>
       <r>   -5.3126    1.0000 </r>
       <r>   -5.2071    1.0000 </r>
       <r>   -5.0834    1.0000 </r>
       <r>   -4.9473    1.0000 </r>
       <r>   -4.9002    1.0000 </r>
       <r>   -4.6847    1.0000 </r>
       <r>   -4.5673    1.0000 </r>
       <r>   -4.4902    1.0000 </r>
       <r>   -4.3753    1.0000 </r>
       <r>   -4.2118    1.0000 </r>
       <r>   -4.1632    1.0000 </r>
       <r>   -4.0305    1.0000 </r>
       <r>   -3.8879    1.0000 </r>
       <r>   -3.6382    0.9969 </r>
       <r>   -3.4781    0.9461 </r>
       <r>   -3.1546    0.2486 </r>
       <r>   -2.9068    0.0075 </r>
       <r>   -2.7387    0.0001 </r>
       <r>   -2.6117    0.0000 </r>
       <r>   -2.5019    0.0000 </r>
       <r>   -2.4317    0.0000 </r>
       <r>   -2.3589    0.0000 </r>
       <r>   -2.2633    0.0000 </r>
       <r>   -2.1288    0.0000 </r>
       <r>   -2.0313    0.0000 </r>
       <r>   -1.9800    0.0000 </r>
       <r>   -1.8838    0.0000 </r>
       <r>   -1.7279    0.0000 </r>
       <r>   -1.4999    0.0000 </r>
       <r>   -1.2885    0.0000 </r>
       <r>   -1.1811    0.0000 </r>
       <r>   -1.1350    0.0000 </r>
       <r>   -1.0659    0.0000 </r>
       <r>   -1.0119    0.0000 </r>
       <r>   -0.9806    0.0000 </r>
       <r>   -0.9013    0.0000 </r>
       <r>   -0.8253    0.0000 </r>
       <r>   -0.7819    0.0000 </r>
       <r>   -0.6500    0.0000 </r>
       <r>   -0.6205    0.0000 </r>
       <r>   -0.5124    0.0000 </r>
       <r>   -0.3519    0.0000 </r>
       <r>   -0.2054    0.0000 </r>
       <r>   -0.1154    0.0000 </r>
       <r>    0.0592    0.0000 </r>
       <r>    0.2528    0.0000 </r>
       <r>    0.4391    0.0000 </r>
       <r>    0.6144    0.0000 </r>
       <r>    0.7886    0.0000 </r>
       <r>    0.9541    0.0000 </r>
       <r>    1.0198    0.0000 </r>
       <r>    1.1642    0.0000 </r>
       <r>    1.3281    0.0000 </r>
       <r>    2.0868    0.0000 </r>
       <r>    2.2452    0.0000 </r>
       <r>    2.5445    0.0000 </r>
      </set>
      <set comment="kpoint 33">
       <r>  -17.4837    1.0000 </r>
       <r>  -17.2712    1.0000 </r>
       <r>  -16.9108    1.0000 </r>
       <r>  -16.6145    1.0000 </r>
       <r>  -16.5075    1.0000 </r>
       <r>  -16.3708    1.0000 </r>
       <r>  -16.3075    1.0000 </r>
       <r>  -16.2186    1.0000 </r>
       <r>  -16.0937    1.0000 </r>
       <r>  -16.0493    1.0000 </r>
       <r>  -15.9767    1.0000 </r>
       <r>  -15.8595    1.0000 </r>
       <r>  -15.8069    1.0000 </r>
       <r>  -15.6983    1.0000 </r>
       <r>  -15.6106    1.0000 </r>
       <r>  -15.5019    1.0000 </r>
       <r>  -15.4454    1.0000 </r>
       <r>  -15.2592    1.0000 </r>
       <r>   -9.7359    1.0000 </r>
       <r>   -9.4312    1.0000 </r>
       <r>   -9.2740    1.0000 </r>
       <r>   -8.9546    1.0000 </r>
       <r>   -8.8190    1.0000 </r>
       <r>   -8.7264    1.0000 </r>
       <r>   -8.5647    1.0000 </r>
       <r>   -8.4784    1.0000 </r>
       <r>   -8.3798    1.0000 </r>
       <r>   -8.3052    1.0000 </r>
       <r>   -8.2694    1.0000 </r>
       <r>   -8.2022    1.0000 </r>
       <r>   -8.1544    1.0000 </r>
       <r>   -8.0774    1.0000 </r>
       <r>   -7.9144    1.0000 </r>
       <r>   -7.8801    1.0000 </r>
       <r>   -7.7968    1.0000 </r>
       <r>   -7.7384    1.0000 </r>
       <r>   -7.5406    1.0000 </r>
       <r>   -7.4181    1.0000 </r>
       <r>   -7.3280    1.0000 </r>
       <r>   -7.2654    1.0000 </r>
       <r>   -7.1152    1.0000 </r>
       <r>   -7.0723    1.0000 </r>
       <r>   -7.0052    1.0000 </r>
       <r>   -6.8871    1.0000 </r>
       <r>   -6.8568    1.0000 </r>
       <r>   -6.7826    1.0000 </r>
       <r>   -6.7401    1.0000 </r>
       <r>   -6.6007    1.0000 </r>
       <r>   -6.5316    1.0000 </r>
       <r>   -6.4386    1.0000 </r>
       <r>   -6.4039    1.0000 </r>
       <r>   -6.3059    1.0000 </r>
       <r>   -6.2786    1.0000 </r>
       <r>   -6.2330    1.0000 </r>
       <r>   -6.1818    1.0000 </r>
       <r>   -6.0747    1.0000 </r>
       <r>   -6.0043    1.0000 </r>
       <r>   -5.9522    1.0000 </r>
       <r>   -5.8813    1.0000 </r>
       <r>   -5.8466    1.0000 </r>
       <r>   -5.7613    1.0000 </r>
       <r>   -5.6854    1.0000 </r>
       <r>   -5.5884    1.0000 </r>
       <r>   -5.3517    1.0000 </r>
       <r>   -5.2807    1.0000 </r>
       <r>   -5.1464    1.0000 </r>
       <r>   -5.0962    1.0000 </r>
       <r>   -4.9463    1.0000 </r>
       <r>   -4.9118    1.0000 </r>
       <r>   -4.6538    1.0000 </r>
       <r>   -4.5452    1.0000 </r>
       <r>   -4.4992    1.0000 </r>
       <r>   -4.3954    1.0000 </r>
       <r>   -4.2204    1.0000 </r>
       <r>   -4.1889    1.0000 </r>
       <r>   -4.0391    1.0000 </r>
       <r>   -3.8795    1.0000 </r>
       <r>   -3.6332    0.9966 </r>
       <r>   -3.5228    0.9728 </r>
       <r>   -3.0108    0.0449 </r>
       <r>   -2.8967    0.0062 </r>
       <r>   -2.7738    0.0004 </r>
       <r>   -2.5961    0.0000 </r>
       <r>   -2.5293    0.0000 </r>
       <r>   -2.4591    0.0000 </r>
       <r>   -2.4090    0.0000 </r>
       <r>   -2.2364    0.0000 </r>
       <r>   -2.1568    0.0000 </r>
       <r>   -2.0458    0.0000 </r>
       <r>   -1.9801    0.0000 </r>
       <r>   -1.9125    0.0000 </r>
       <r>   -1.6262    0.0000 </r>
       <r>   -1.4809    0.0000 </r>
       <r>   -1.2983    0.0000 </r>
       <r>   -1.2022    0.0000 </r>
       <r>   -1.1453    0.0000 </r>
       <r>   -1.0975    0.0000 </r>
       <r>   -1.0622    0.0000 </r>
       <r>   -0.9722    0.0000 </r>
       <r>   -0.9103    0.0000 </r>
       <r>   -0.8129    0.0000 </r>
       <r>   -0.7711    0.0000 </r>
       <r>   -0.6639    0.0000 </r>
       <r>   -0.5496    0.0000 </r>
       <r>   -0.4956    0.0000 </r>
       <r>   -0.2642    0.0000 </r>
       <r>   -0.2027    0.0000 </r>
       <r>   -0.1308    0.0000 </r>
       <r>    0.0071    0.0000 </r>
       <r>    0.2678    0.0000 </r>
       <r>    0.5208    0.0000 </r>
       <r>    0.6392    0.0000 </r>
       <r>    0.8089    0.0000 </r>
       <r>    0.9031    0.0000 </r>
       <r>    1.0146    0.0000 </r>
       <r>    1.0972    0.0000 </r>
       <r>    1.3063    0.0000 </r>
       <r>    2.1162    0.0000 </r>
       <r>    2.2773    0.0000 </r>
       <r>    2.3783    0.0000 </r>
      </set>
      <set comment="kpoint 34">
       <r>  -17.4586    1.0000 </r>
       <r>  -17.3327    1.0000 </r>
       <r>  -16.7429    1.0000 </r>
       <r>  -16.6825    1.0000 </r>
       <r>  -16.6146    1.0000 </r>
       <r>  -16.3820    1.0000 </r>
       <r>  -16.2686    1.0000 </r>
       <r>  -16.2490    1.0000 </r>
       <r>  -16.0700    1.0000 </r>
       <r>  -16.0291    1.0000 </r>
       <r>  -15.9914    1.0000 </r>
       <r>  -15.8227    1.0000 </r>
       <r>  -15.8130    1.0000 </r>
       <r>  -15.6698    1.0000 </r>
       <r>  -15.6290    1.0000 </r>
       <r>  -15.5050    1.0000 </r>
       <r>  -15.4699    1.0000 </r>
       <r>  -15.2551    1.0000 </r>
       <r>   -9.7712    1.0000 </r>
       <r>   -9.3424    1.0000 </r>
       <r>   -9.1653    1.0000 </r>
       <r>   -9.0646    1.0000 </r>
       <r>   -8.8711    1.0000 </r>
       <r>   -8.8239    1.0000 </r>
       <r>   -8.5881    1.0000 </r>
       <r>   -8.4929    1.0000 </r>
       <r>   -8.3800    1.0000 </r>
       <r>   -8.3413    1.0000 </r>
       <r>   -8.2385    1.0000 </r>
       <r>   -8.1502    1.0000 </r>
       <r>   -8.1292    1.0000 </r>
       <r>   -8.0424    1.0000 </r>
       <r>   -7.8933    1.0000 </r>
       <r>   -7.8163    1.0000 </r>
       <r>   -7.8066    1.0000 </r>
       <r>   -7.7829    1.0000 </r>
       <r>   -7.5150    1.0000 </r>
       <r>   -7.4445    1.0000 </r>
       <r>   -7.2705    1.0000 </r>
       <r>   -7.2582    1.0000 </r>
       <r>   -7.1197    1.0000 </r>
       <r>   -7.0235    1.0000 </r>
       <r>   -7.0062    1.0000 </r>
       <r>   -6.9100    1.0000 </r>
       <r>   -6.8923    1.0000 </r>
       <r>   -6.7971    1.0000 </r>
       <r>   -6.7439    1.0000 </r>
       <r>   -6.5717    1.0000 </r>
       <r>   -6.5387    1.0000 </r>
       <r>   -6.4297    1.0000 </r>
       <r>   -6.3725    1.0000 </r>
       <r>   -6.3465    1.0000 </r>
       <r>   -6.2686    1.0000 </r>
       <r>   -6.1583    1.0000 </r>
       <r>   -6.1448    1.0000 </r>
       <r>   -6.1109    1.0000 </r>
       <r>   -6.1002    1.0000 </r>
       <r>   -5.9817    1.0000 </r>
       <r>   -5.9149    1.0000 </r>
       <r>   -5.8472    1.0000 </r>
       <r>   -5.8290    1.0000 </r>
       <r>   -5.7131    1.0000 </r>
       <r>   -5.5631    1.0000 </r>
       <r>   -5.3559    1.0000 </r>
       <r>   -5.3003    1.0000 </r>
       <r>   -5.1025    1.0000 </r>
       <r>   -5.0810    1.0000 </r>
       <r>   -4.9418    1.0000 </r>
       <r>   -4.7829    1.0000 </r>
       <r>   -4.7482    1.0000 </r>
       <r>   -4.5129    1.0000 </r>
       <r>   -4.4653    1.0000 </r>
       <r>   -4.3818    1.0000 </r>
       <r>   -4.2673    1.0000 </r>
       <r>   -4.2091    1.0000 </r>
       <r>   -4.0436    1.0000 </r>
       <r>   -3.8745    1.0000 </r>
       <r>   -3.6307    0.9964 </r>
       <r>   -3.5506    0.9830 </r>
       <r>   -2.9323    0.0122 </r>
       <r>   -2.8936    0.0058 </r>
       <r>   -2.8017    0.0008 </r>
       <r>   -2.5768    0.0000 </r>
       <r>   -2.5581    0.0000 </r>
       <r>   -2.4648    0.0000 </r>
       <r>   -2.4482    0.0000 </r>
       <r>   -2.2234    0.0000 </r>
       <r>   -2.1657    0.0000 </r>
       <r>   -2.0406    0.0000 </r>
       <r>   -1.9840    0.0000 </r>
       <r>   -1.9256    0.0000 </r>
       <r>   -1.5698    0.0000 </r>
       <r>   -1.4555    0.0000 </r>
       <r>   -1.3040    0.0000 </r>
       <r>   -1.2465    0.0000 </r>
       <r>   -1.1425    0.0000 </r>
       <r>   -1.1234    0.0000 </r>
       <r>   -1.0766    0.0000 </r>
       <r>   -0.9425    0.0000 </r>
       <r>   -0.9229    0.0000 </r>
       <r>   -0.8181    0.0000 </r>
       <r>   -0.7718    0.0000 </r>
       <r>   -0.6677    0.0000 </r>
       <r>   -0.5227    0.0000 </r>
       <r>   -0.4639    0.0000 </r>
       <r>   -0.2326    0.0000 </r>
       <r>   -0.2163    0.0000 </r>
       <r>   -0.1396    0.0000 </r>
       <r>   -0.0294    0.0000 </r>
       <r>    0.2627    0.0000 </r>
       <r>    0.5831    0.0000 </r>
       <r>    0.6546    0.0000 </r>
       <r>    0.8062    0.0000 </r>
       <r>    0.8712    0.0000 </r>
       <r>    1.0341    0.0000 </r>
       <r>    1.0624    0.0000 </r>
       <r>    1.3134    0.0000 </r>
       <r>    2.1839    0.0000 </r>
       <r>    2.2469    0.0000 </r>
       <r>    2.3689    0.0000 </r>
      </set>
     </set>
    </set>
   </array>
  </eigenvalues>
  <separator name="orbital magnetization" >
   <v name="MAGDIPOLOUT">      0.00000000      0.00000000      0.00000000</v>
  </separator>
 </calculation>
 <structure name="finalpos" >
  <crystal>
   <varray name="basis" >
    <v>       8.36982650       4.84590589       0.00000000 </v>
    <v>      -8.36757254       4.84210119       0.00000000 </v>
    <v>       0.00000000       0.00000000      30.00000000 </v>
   </varray>
   <i name="volume">   2432.28047746 </i>
   <varray name="rec_basis" >
    <v>       0.05972298       0.10320651       0.00000000 </v>
    <v>      -0.05976991       0.10323431       0.00000000 </v>
    <v>       0.00000000       0.00000000       0.03333333 </v>
   </varray>
  </crystal>
  <varray name="positions" >
   <v>       0.29639611      -0.01860778       0.00060072 </v>
   <v>       0.98178463       0.29901090      -0.00067920 </v>
   <v>       0.30856878       0.30913862       0.00034547 </v>
   <v>      -0.00640697      -0.00784552       0.00000545 </v>
   <v>      -0.02005351       0.68022911      -0.00024549 </v>
   <v>       0.68758656       0.68598378       0.00002023 </v>
   <v>       0.37295291       0.68339575      -0.00177811 </v>
   <v>       0.68089276      -0.01866007       0.00004202 </v>
   <v>       0.68341688       0.37268940       0.00160767 </v>
   <v>       0.10906911       0.22352060       0.94881779 </v>
   <v>       0.22258037       0.10821028       0.05169000 </v>
   <v>       0.11352161       0.55371982       0.95952394 </v>
   <v>       0.21827173       0.44031896       0.04622704 </v>
   <v>       0.11145799       0.89020249       0.94547750 </v>
   <v>       0.22311929       0.77659283       0.04831121 </v>
   <v>       0.43865423       0.21756979       0.95414764 </v>
   <v>       0.55314844       0.11202048       0.04029761 </v>
   <v>       0.44760835       0.54613731       0.95059624 </v>
   <v>       0.54757174       0.44797924       0.04967153 </v>
   <v>       0.44878979       0.89735705       0.95019272 </v>
   <v>       0.56348771       0.78030406       0.05596845 </v>
   <v>       0.77696101       0.22318946       0.95135697 </v>
   <v>       0.89058057       0.11266508       0.05423759 </v>
   <v>       0.77847471       0.56149858       0.94374818 </v>
   <v>       0.89594421       0.44781076       0.04986794 </v>
   <v>       0.78327623       0.89028203       0.94311123 </v>
   <v>       0.89055920       0.78350147       0.05683757 </v>
  </varray>
 </structure>
</modeling>
