<?xml version="1.0" encoding="ISO-8859-1"?>
<modeling>
 <generator>
  <i name="program" type="string">vasp </i>
  <i name="version" type="string">5.4.1  </i>
  <i name="subversion" type="string">05Feb16 (build Jul 05 2020 17:13:04) complex                          parallel </i>
  <i name="platform" type="string">IFC91_ompi </i>
  <i name="date" type="string">2024 08 03 </i>
  <i name="time" type="string">13:35:37 </i>
 </generator>
 <incar>
  <i type="int" name="ISTART">     0</i>
  <i type="string" name="PREC">normal</i>
  <i type="string" name="ALGO"> Normal</i>
  <i type="int" name="ISPIN">     1</i>
  <i type="int" name="ICHARG">     2</i>
  <i type="int" name="IBRION">     1</i>
  <i type="int" name="NSW">   100</i>
  <i type="int" name="ISIF">     3</i>
  <i type="int" name="ISYM">     0</i>
  <i name="SYMPREC">      0.00000001</i>
  <i name="POTIM">      0.50000000</i>
  <i type="logical" name="LREAL"> F  </i>
  <i type="logical" name="LPLANE"> F  </i>
  <i type="int" name="ISMEAR">     0</i>
  <i type="logical" name="LWAVE"> F  </i>
  <i type="logical" name="LCHARG"> F  </i>
  <v type="int" name="KPOINT_BSE">    -1     0     0     0</v>
 </incar>
 <kpoints>
  <generation param="Gamma">
   <v type="int" name="divisions">       8        8        1 </v>
   <v name="usershift">      0.00000000       0.00000000       0.00000000 </v>
   <v name="genvec1">      0.12500000       0.00000000       0.00000000 </v>
   <v name="genvec2">     -0.00000000       0.12500000       0.00000000 </v>
   <v name="genvec3">      0.00000000       0.00000000       1.00000000 </v>
   <v name="shift">      0.00000000       0.00000000       0.00000000 </v>
  </generation>
  <varray name="kpointlist" >
   <v>       0.00000000       0.00000000       0.00000000 </v>
   <v>       0.12500000       0.00000000       0.00000000 </v>
   <v>       0.25000000       0.00000000       0.00000000 </v>
   <v>       0.37500000       0.00000000       0.00000000 </v>
   <v>       0.50000000       0.00000000       0.00000000 </v>
   <v>       0.00000000       0.12500000       0.00000000 </v>
   <v>       0.12500000       0.12500000       0.00000000 </v>
   <v>       0.25000000       0.12500000       0.00000000 </v>
   <v>       0.37500000       0.12500000       0.00000000 </v>
   <v>       0.50000000       0.12500000       0.00000000 </v>
   <v>      -0.37500000       0.12500000       0.00000000 </v>
   <v>      -0.25000000       0.12500000       0.00000000 </v>
   <v>      -0.12500000       0.12500000       0.00000000 </v>
   <v>       0.00000000       0.25000000       0.00000000 </v>
   <v>       0.12500000       0.25000000       0.00000000 </v>
   <v>       0.25000000       0.25000000       0.00000000 </v>
   <v>       0.37500000       0.25000000       0.00000000 </v>
   <v>       0.50000000       0.25000000       0.00000000 </v>
   <v>      -0.37500000       0.25000000       0.00000000 </v>
   <v>      -0.25000000       0.25000000       0.00000000 </v>
   <v>      -0.12500000       0.25000000       0.00000000 </v>
   <v>      -0.00000000       0.37500000       0.00000000 </v>
   <v>       0.12500000       0.37500000       0.00000000 </v>
   <v>       0.25000000       0.37500000       0.00000000 </v>
   <v>       0.37500000       0.37500000       0.00000000 </v>
   <v>       0.50000000       0.37500000       0.00000000 </v>
   <v>      -0.37500000       0.37500000       0.00000000 </v>
   <v>      -0.25000000       0.37500000       0.00000000 </v>
   <v>      -0.12500000       0.37500000       0.00000000 </v>
   <v>       0.00000000       0.50000000       0.00000000 </v>
   <v>       0.12500000       0.50000000       0.00000000 </v>
   <v>       0.25000000       0.50000000       0.00000000 </v>
   <v>       0.37500000       0.50000000       0.00000000 </v>
   <v>       0.50000000       0.50000000       0.00000000 </v>
  </varray>
  <varray name="weights" >
   <v>       0.01562500 </v>
   <v>       0.03125000 </v>
   <v>       0.03125000 </v>
   <v>       0.03125000 </v>
   <v>       0.01562500 </v>
   <v>       0.03125000 </v>
   <v>       0.03125000 </v>
   <v>       0.03125000 </v>
   <v>       0.03125000 </v>
   <v>       0.03125000 </v>
   <v>       0.03125000 </v>
   <v>       0.03125000 </v>
   <v>       0.03125000 </v>
   <v>       0.03125000 </v>
   <v>       0.03125000 </v>
   <v>       0.03125000 </v>
   <v>       0.03125000 </v>
   <v>       0.03125000 </v>
   <v>       0.03125000 </v>
   <v>       0.03125000 </v>
   <v>       0.03125000 </v>
   <v>       0.03125000 </v>
   <v>       0.03125000 </v>
   <v>       0.03125000 </v>
   <v>       0.03125000 </v>
   <v>       0.03125000 </v>
   <v>       0.03125000 </v>
   <v>       0.03125000 </v>
   <v>       0.03125000 </v>
   <v>       0.01562500 </v>
   <v>       0.03125000 </v>
   <v>       0.03125000 </v>
   <v>       0.03125000 </v>
   <v>       0.01562500 </v>
  </varray>
 </kpoints>
 <parameters>
  <separator name="general" >
   <i type="string" name="SYSTEM">unknown system</i>
   <i type="logical" name="LCOMPAT"> F  </i>
  </separator>
  <separator name="electronic" >
   <i type="string" name="PREC">normal</i>
   <i name="ENMAX">    280.00000000</i>
   <i name="ENAUG">    373.43800000</i>
   <i name="EDIFF">      0.00010000</i>
   <i type="int" name="IALGO">    38</i>
   <i type="int" name="IWAVPR">    11</i>
   <i type="int" name="NBANDS">   120</i>
   <i name="NELECT">    159.00000000</i>
   <i type="int" name="TURBO">     0</i>
   <i type="int" name="IRESTART">     0</i>
   <i type="int" name="NREBOOT">     0</i>
   <i type="int" name="NMIN">     0</i>
   <i name="EREF">      0.00000000</i>
   <separator name="electronic smearing" >
    <i type="int" name="ISMEAR">     0</i>
    <i name="SIGMA">      0.20000000</i>
    <i name="KSPACING">      0.50000000</i>
    <i type="logical" name="KGAMMA"> T  </i>
   </separator>
   <separator name="electronic projectors" >
    <i type="logical" name="LREAL"> F  </i>
    <v name="ROPT">      0.00000000      0.00000000      0.00000000      0.00000000</v>
    <i type="int" name="LMAXPAW">  -100</i>
    <i type="int" name="LMAXMIX">     2</i>
    <i type="logical" name="NLSPLINE"> F  </i>
   </separator>
   <separator name="electronic startup" >
    <i type="int" name="ISTART">     0</i>
    <i type="int" name="ICHARG">     2</i>
    <i type="int" name="INIWAV">     1</i>
   </separator>
   <separator name="electronic spin" >
    <i type="int" name="ISPIN">     1</i>
    <i type="logical" name="LNONCOLLINEAR"> F  </i>
    <v name="MAGMOM">      1.00000000      1.00000000      1.00000000      1.00000000      1.00000000      1.00000000      1.00000000      1.00000000      1.00000000      1.00000000      1.00000000      1.00000000      1.00000000      1.00000000      1.00000000      1.00000000      1.00000000      1.00000000      1.00000000      1.00000000
      1.00000000      1.00000000      1.00000000      1.00000000      1.00000000      1.00000000      1.00000000</v>
    <i name="NUPDOWN">     -1.00000000</i>
    <i type="logical" name="LSORBIT"> F  </i>
    <v name="SAXIS">      0.00000000      0.00000000      1.00000000</v>
    <i type="logical" name="LSPIRAL"> F  </i>
    <v name="QSPIRAL">      0.00000000      0.00000000      0.00000000</v>
    <i type="logical" name="LZEROZ"> F  </i>
   </separator>
   <separator name="electronic exchange-correlation" >
    <i type="logical" name="LASPH"> F  </i>
    <i type="logical" name="LMETAGGA"> F  </i>
   </separator>
   <separator name="electronic convergence" >
    <i type="int" name="NELM">    60</i>
    <i type="int" name="NELMDL">    -5</i>
    <i type="int" name="NELMIN">     2</i>
    <i name="ENINI">    280.00000000</i>
    <separator name="electronic convergence detail" >
     <i type="logical" name="LDIAG"> T  </i>
     <i type="logical" name="LSUBROT"> F  </i>
     <i name="WEIMIN">      0.00100000</i>
     <i name="EBREAK">      0.00000021</i>
     <i name="DEPER">      0.30000000</i>
     <i type="int" name="NRMM">     4</i>
     <i name="TIME">      0.40000000</i>
    </separator>
   </separator>
   <separator name="electronic mixer" >
    <i name="AMIX">      0.40000000</i>
    <i name="BMIX">      1.00000000</i>
    <i name="AMIN">      0.10000000</i>
    <i name="AMIX_MAG">      1.60000000</i>
    <i name="BMIX_MAG">      1.00000000</i>
    <separator name="electronic mixer details" >
     <i type="int" name="IMIX">     4</i>
     <i type="logical" name="MIXFIRST"> F  </i>
     <i type="int" name="MAXMIX">   -45</i>
     <i name="WC">    100.00000000</i>
     <i type="int" name="INIMIX">     1</i>
     <i type="int" name="MIXPRE">     1</i>
     <i type="int" name="MREMOVE">     5</i>
    </separator>
   </separator>
   <separator name="electronic dipolcorrection" >
    <i type="logical" name="LDIPOL"> F  </i>
    <i type="logical" name="LMONO"> F  </i>
    <i type="int" name="IDIPOL">     0</i>
    <i name="EPSILON">      1.00000000</i>
    <v name="DIPOL">   -100.00000000   -100.00000000   -100.00000000</v>
    <i name="EFIELD">      0.00000000</i>
   </separator>
  </separator>
  <separator name="grids" >
   <i type="int" name="NGX">    42</i>
   <i type="int" name="NGY">    42</i>
   <i type="int" name="NGZ">   126</i>
   <i type="int" name="NGXF">    84</i>
   <i type="int" name="NGYF">    84</i>
   <i type="int" name="NGZF">   252</i>
   <i type="logical" name="ADDGRID"> F  </i>
  </separator>
  <separator name="ionic" >
   <i type="int" name="NSW">   100</i>
   <i type="int" name="IBRION">     1</i>
   <i type="int" name="ISIF">     3</i>
   <i name="PSTRESS">      0.00000000</i>
   <i name="EDIFFG">      0.00100000</i>
   <i type="int" name="NFREE">     0</i>
   <i name="POTIM">      0.50000000</i>
   <i name="SMASS">     -3.00000000</i>
   <i name="SCALEE">      1.00000000</i>
  </separator>
  <separator name="ionic md" >
   <i name="TEBEG">      0.00010000</i>
   <i name="TEEND">      0.00010000</i>
   <i type="int" name="NBLOCK">     1</i>
   <i type="int" name="KBLOCK">   100</i>
   <i type="int" name="NPACO">   256</i>
   <i name="APACO">     16.00000000</i>
  </separator>
  <separator name="symmetry" >
   <i type="int" name="ISYM">     0</i>
   <i name="SYMPREC">      0.00000001</i>
  </separator>
  <separator name="dos" >
   <i type="logical" name="LORBIT"> F  </i>
   <v name="RWIGS">     -1.00000000     -1.00000000     -1.00000000     -1.00000000</v>
   <i type="int" name="NEDOS">   301</i>
   <i name="EMIN">     10.00000000</i>
   <i name="EMAX">    -10.00000000</i>
   <i name="EFERMI">      0.00000000</i>
  </separator>
  <separator name="writing" >
   <i type="int" name="NWRITE">     2</i>
   <i type="logical" name="LWAVE"> F  </i>
   <i type="logical" name="LCHARG"> F  </i>
   <i type="logical" name="LPARD"> F  </i>
   <i type="logical" name="LVTOT"> F  </i>
   <i type="logical" name="LVHAR"> F  </i>
   <i type="logical" name="LELF"> F  </i>
   <i type="logical" name="LOPTICS"> F  </i>
   <v name="STM">      0.00000000      0.00000000      0.00000000      0.00000000      0.00000000      0.00000000      0.00000000</v>
  </separator>
  <separator name="performance" >
   <i type="int" name="NPAR">    40</i>
   <i type="int" name="NSIM">     4</i>
   <i type="int" name="NBLK">    -1</i>
   <i type="logical" name="LPLANE"> F  </i>
   <i type="logical" name="LSCALAPACK"> T  </i>
   <i type="logical" name="LSCAAWARE"> F  </i>
   <i type="logical" name="LSCALU"> F  </i>
   <i type="logical" name="LASYNC"> F  </i>
   <i type="logical" name="LORBITALREAL"> F  </i>
  </separator>
  <separator name="miscellaneous" >
   <i type="int" name="IDIOT">     3</i>
   <i type="logical" name="LMUSIC"> F  </i>
   <v name="POMASS">     50.94100000     95.94000000    183.85000000     32.06600000</v>
   <v name="DARWINR">      0.00000000      0.00000000      0.00000000      0.00000000</v>
   <v name="DARWINV">      1.00000000      1.00000000      1.00000000      1.00000000</v>
   <i type="logical" name="LCORR"> T  </i>
  </separator>
  <i type="logical" name="GGA_COMPAT"> T  </i>
  <i type="logical" name="LBERRY"> F  </i>
  <i type="int" name="ICORELEVEL">     0</i>
  <i type="logical" name="LDAU"> F  </i>
  <i type="int" name="I_CONSTRAINED_M">     0</i>
  <separator name="electronic exchange-correlation" >
   <i type="string" name="GGA">--</i>
   <i type="int" name="VOSKOWN">     0</i>
   <i type="logical" name="LHFCALC"> F  </i>
   <i type="string" name="PRECFOCK"></i>
   <i type="logical" name="LSYMGRAD"> F  </i>
   <i type="logical" name="LHFONE"> F  </i>
   <i type="logical" name="LRHFCALC"> F  </i>
   <i type="logical" name="LTHOMAS"> F  </i>
   <i type="logical" name="LMODELHF"> F  </i>
   <i name="ENCUT4O">     -1.00000000</i>
   <i type="int" name="EXXOEP">     0</i>
   <i type="int" name="FOURORBIT">     0</i>
   <i name="AEXX">      0.00000000</i>
   <i name="HFALPHA">      0.00000000</i>
   <i name="MCALPHA">      0.00000000</i>
   <i name="ALDAX">      1.00000000</i>
   <i name="AGGAX">      1.00000000</i>
   <i name="ALDAC">      1.00000000</i>
   <i name="AGGAC">      1.00000000</i>
   <i type="int" name="NKREDX">     1</i>
   <i type="int" name="NKREDY">     1</i>
   <i type="int" name="NKREDZ">     1</i>
   <i type="logical" name="SHIFTRED"> F  </i>
   <i type="logical" name="ODDONLY"> F  </i>
   <i type="logical" name="EVENONLY"> F  </i>
   <i type="int" name="LMAXFOCK">     0</i>
   <i type="int" name="NMAXFOCKAE">     0</i>
   <i type="logical" name="LFOCKAEDFT"> F  </i>
   <i name="HFSCREEN">      0.00000000</i>
   <i name="HFSCREENC">      0.00000000</i>
   <i type="int" name="NBANDSGWLOW">     0</i>
  </separator>
  <separator name="vdW DFT" >
   <i type="logical" name="LUSE_VDW"> F  </i>
   <i name="Zab_VDW">     -0.84910000</i>
   <i name="PARAM1">      0.12340000</i>
   <i name="PARAM2">      1.00000000</i>
   <i name="PARAM3">      0.00000000</i>
  </separator>
  <separator name="model GW" >
   <i type="int" name="MODEL_GW">     0</i>
   <i name="MODEL_EPS0">     58.26239943</i>
   <i name="MODEL_ALPHA">      1.00000000</i>
  </separator>
  <separator name="linear response parameters" >
   <i type="logical" name="LEPSILON"> F  </i>
   <i type="logical" name="LRPA"> F  </i>
   <i type="logical" name="LNABLA"> F  </i>
   <i type="logical" name="LVEL"> F  </i>
   <i type="int" name="KINTER">     0</i>
   <i name="CSHIFT">      0.10000000</i>
   <i name="OMEGAMAX">     -1.00000000</i>
   <i name="DEG_THRESHOLD">      0.00200000</i>
  </separator>
  <separator name="orbital magnetization" >
   <i type="logical" name="NUCIND"> F  </i>
   <v name="MAGPOS">      0.00000000      0.00000000      0.00000000</v>
   <i type="logical" name="LNICSALL"> T  </i>
   <i type="logical" name="ORBITALMAG"> F  </i>
   <i type="logical" name="LMAGBLOCH"> F  </i>
   <i type="logical" name="LCHIMAG"> F  </i>
   <i type="logical" name="LGAUGE"> T  </i>
   <i type="int" name="MAGATOM">     0</i>
   <v name="MAGDIPOL">      0.00000000      0.00000000      0.00000000</v>
   <v name="AVECCONST">      0.00000000      0.00000000      0.00000000</v>
  </separator>
  <separator name="response functions" >
   <i type="logical" name="LADDER"> F  </i>
   <i type="logical" name="LFXC"> F  </i>
   <i type="logical" name="LHARTREE"> T  </i>
   <i type="int" name="IBSE">     0</i>
   <v type="int" name="KPOINT">    -1     0     0     0</v>
   <i type="logical" name="LTCTE"> F  </i>
   <i type="logical" name="LTETE"> F  </i>
   <i type="logical" name="LTRIPLET"> F  </i>
   <i type="logical" name="LFXCEPS"> F  </i>
   <i type="logical" name="LFXHEG"> F  </i>
   <i type="int" name="NATURALO">     0</i>
   <i type="logical" name="L2ORDER"> F  </i>
   <i type="logical" name="LUSEW"> F  </i>
   <i name="ENCUTGW">     -2.00000000</i>
   <i name="ENCUTGWSOFT">     -2.00000000</i>
   <i name="ENCUTLF">     -1.00000000</i>
   <i type="int" name="LMAXMP2">    -1</i>
   <i name="SCISSOR">      0.00000000</i>
   <i type="int" name="NOMEGA">     0</i>
   <i type="int" name="NOMEGAR">     0</i>
   <i type="int" name="NBANDSGW">    -1</i>
   <i type="int" name="NBANDSO">    -1</i>
   <i type="int" name="NBANDSV">    -1</i>
   <i type="int" name="NELM">     1</i>
   <i type="int" name="NELMHF">     1</i>
   <i type="int" name="DIM">     3</i>
   <i type="int" name="ANTIRES">     0</i>
   <i name="OMEGAMAX">    -30.00000000</i>
   <i name="OMEGAMIN">    -30.00000000</i>
   <i name="OMEGATL">   -200.00000000</i>
   <i type="int" name="OMEGAGRID">     0</i>
   <i name="CSHIFT">     -0.10000000</i>
   <i type="logical" name="SELFENERGY"> F  </i>
   <i type="logical" name="LSPECTRAL"> F  </i>
   <i type="logical" name="LSPECTRALGW"> F  </i>
   <i type="logical" name="LSINGLES"> F  </i>
   <i type="logical" name="LFERMIGW"> F  </i>
   <i type="logical" name="ODDONLYGW"> F  </i>
   <i type="logical" name="EVENONLYGW"> F  </i>
   <i type="int" name="NKREDLFX">     1</i>
   <i type="int" name="NKREDLFY">     1</i>
   <i type="int" name="NKREDLFZ">     1</i>
   <i type="int" name="MAXMEM">  1800</i>
   <i type="int" name="TELESCOPE">     0</i>
   <i type="int" name="TAUPAR">     1</i>
   <i type="int" name="OMEGAPAR">    -1</i>
   <i name="LAMBDA">      1.00000000</i>
  </separator>
  <separator name="External order field" >
   <i name="OFIELD_KAPPA">      0.00000000</i>
   <v name="OFIELD_K">      0.00000000      0.00000000      0.00000000</v>
   <i name="OFIELD_Q6_NEAR">      0.00000000</i>
   <i name="OFIELD_Q6_FAR">      0.00000000</i>
   <i name="OFIELD_A">      0.00000000</i>
  </separator>
 </parameters>
 <atominfo>
  <atoms>      27 </atoms>
  <types>       4 </types>
  <array name="atoms" >
   <dimension dim="1">ion</dimension>
   <field type="string">element</field>
   <field type="int">atomtype</field>
   <set>
    <rc><c>V </c><c>   1</c></rc>
    <rc><c>V </c><c>   1</c></rc>
    <rc><c>V </c><c>   1</c></rc>
    <rc><c>Mo</c><c>   2</c></rc>
    <rc><c>Mo</c><c>   2</c></rc>
    <rc><c>Mo</c><c>   2</c></rc>
    <rc><c>W </c><c>   3</c></rc>
    <rc><c>W </c><c>   3</c></rc>
    <rc><c>W </c><c>   3</c></rc>
    <rc><c>S </c><c>   4</c></rc>
    <rc><c>S </c><c>   4</c></rc>
    <rc><c>S </c><c>   4</c></rc>
    <rc><c>S </c><c>   4</c></rc>
    <rc><c>S </c><c>   4</c></rc>
    <rc><c>S </c><c>   4</c></rc>
    <rc><c>S </c><c>   4</c></rc>
    <rc><c>S </c><c>   4</c></rc>
    <rc><c>S </c><c>   4</c></rc>
    <rc><c>S </c><c>   4</c></rc>
    <rc><c>S </c><c>   4</c></rc>
    <rc><c>S </c><c>   4</c></rc>
    <rc><c>S </c><c>   4</c></rc>
    <rc><c>S </c><c>   4</c></rc>
    <rc><c>S </c><c>   4</c></rc>
    <rc><c>S </c><c>   4</c></rc>
    <rc><c>S </c><c>   4</c></rc>
    <rc><c>S </c><c>   4</c></rc>
   </set>
  </array>
  <array name="atomtypes" >
   <dimension dim="1">type</dimension>
   <field type="int">atomspertype</field>
   <field type="string">element</field>
   <field>mass</field>
   <field>valence</field>
   <field type="string">pseudopotential</field>
   <set>
    <rc><c>   3</c><c>V </c><c>     50.94100000</c><c>      5.00000000</c><c> PAW_PBE V 08Apr2002                    </c></rc>
    <rc><c>   3</c><c>Mo</c><c>     95.94000000</c><c>      6.00000000</c><c> PAW_PBE Mo 08Apr2002                   </c></rc>
    <rc><c>   3</c><c>W </c><c>    183.85000000</c><c>      6.00000000</c><c> PAW_PBE W 08Apr2002                    </c></rc>
    <rc><c>  18</c><c>S </c><c>     32.06600000</c><c>      6.00000000</c><c>  PAW_PBE S 17Jan2003                   </c></rc>
   </set>
  </array>
 </atominfo>
 <structure name="initialpos" >
  <crystal>
   <varray name="basis" >
    <v>       8.66999996       5.03999989       0.00000000 </v>
    <v>      -8.66999982       5.04000013       0.00000000 </v>
    <v>       0.00000000       0.00000000      30.00000000 </v>
   </varray>
   <i name="volume">   2621.80797419 </i>
   <varray name="rec_basis" >
    <v>       0.05767013       0.09920635       0.00000000 </v>
    <v>      -0.05767013       0.09920635       0.00000000 </v>
    <v>       0.00000000       0.00000000       0.03333333 </v>
   </varray>
  </crystal>
  <varray name="positions" >
   <v>       1.00000000       0.33333334       0.00000000 </v>
   <v>       0.66666669       0.00000000       0.00000000 </v>
   <v>       0.66666669       0.33333334       0.00000000 </v>
   <v>       0.00000000       0.00000000       0.00000000 </v>
   <v>       0.33333334       0.33333334       0.00000000 </v>
   <v>       0.66666669       0.66666669       0.00000000 </v>
   <v>       0.00000000       0.66666669       0.00000000 </v>
   <v>       0.33333334       0.00000000       0.00000000 </v>
   <v>       0.33333334       0.66666669       0.00000000 </v>
   <v>       0.11068511       0.22244981       0.95539999 </v>
   <v>       0.22244981       0.11068511       0.04460000 </v>
   <v>       0.11068511       0.55578315       0.95539999 </v>
   <v>       0.22244981       0.44401845       0.04460000 </v>
   <v>       0.11068511       0.88911647       0.95539999 </v>
   <v>       0.22244981       0.77735180       0.04460000 </v>
   <v>       0.44401845       0.22244981       0.95539999 </v>
   <v>       0.55578315       0.11068511       0.04460000 </v>
   <v>       0.44401845       0.55578315       0.95539999 </v>
   <v>       0.55578315       0.44401845       0.04460000 </v>
   <v>       0.44401845       0.88911647       0.95539999 </v>
   <v>       0.55578315       0.77735180       0.04460000 </v>
   <v>       0.77735180       0.22244981       0.95539999 </v>
   <v>       0.88911647       0.11068511       0.04460000 </v>
   <v>       0.77735180       0.55578315       0.95539999 </v>
   <v>       0.88911647       0.44401845       0.04460000 </v>
   <v>       0.77735180       0.88911647       0.95539999 </v>
   <v>       0.88911647       0.77735180       0.04460000 </v>
  </varray>
 </structure>
 <calculation>
  <scstep>
   <time name="dav">   29.63   29.71</time>
   <time name="total">   29.69   29.77</time>
   <energy>
    <i name="alphaZ">     81.65567618 </i>
    <i name="ewald">  41891.17178115 </i>
    <i name="hartreedc"> -47723.81762089 </i>
    <i name="XCdc">   -242.92455294 </i>
    <i name="pawpsdc">   3467.42045192 </i>
    <i name="pawaedc">  -2871.19716117 </i>
    <i name="eentropy">     -0.53492800 </i>
    <i name="bandstr">   -239.16052082 </i>
    <i name="atom">   6761.44252427 </i>
    <i name="e_fr_energy">   1124.05564969 </i>
    <i name="e_wo_entrp">   1124.59057769 </i>
    <i name="e_0_energy">   1124.32311369 </i>
   </energy>
  </scstep>
  <scstep>
   <time name="dav">   38.64   38.73</time>
   <time name="total">   38.64   38.74</time>
   <energy>
    <i name="e_fr_energy">     -1.28606610 </i>
    <i name="e_wo_entrp">     -1.08068487 </i>
    <i name="e_0_energy">     -1.18337548 </i>
   </energy>
  </scstep>
  <scstep>
   <time name="dav">   37.31   37.40</time>
   <time name="total">   37.31   37.41</time>
   <energy>
    <i name="e_fr_energy">   -199.73774395 </i>
    <i name="e_wo_entrp">   -199.48327887 </i>
    <i name="e_0_energy">   -199.61051141 </i>
   </energy>
  </scstep>
  <scstep>
   <time name="dav">   41.41   41.51</time>
   <time name="total">   41.41   41.52</time>
   <energy>
    <i name="e_fr_energy">   -209.01685946 </i>
    <i name="e_wo_entrp">   -208.72650091 </i>
    <i name="e_0_energy">   -208.87168019 </i>
   </energy>
  </scstep>
  <scstep>
   <time name="dav">   37.73   37.83</time>
   <time name="total">   38.34   38.44</time>
   <energy>
    <i name="e_fr_energy">   -209.30436167 </i>
    <i name="e_wo_entrp">   -209.01676074 </i>
    <i name="e_0_energy">   -209.16056120 </i>
   </energy>
  </scstep>
  <scstep>
   <time name="dav">   42.30   42.40</time>
   <time name="total">   42.92   43.04</time>
   <energy>
    <i name="e_fr_energy">   -237.85548920 </i>
    <i name="e_wo_entrp">   -237.60180147 </i>
    <i name="e_0_energy">   -237.72864533 </i>
   </energy>
  </scstep>
  <scstep>
   <time name="dav">   44.82   44.93</time>
   <time name="total">   45.46   45.58</time>
   <energy>
    <i name="e_fr_energy">   -196.56954064 </i>
    <i name="e_wo_entrp">   -196.21464561 </i>
    <i name="e_0_energy">   -196.39209313 </i>
   </energy>
  </scstep>
  <scstep>
   <time name="dav">   40.81   40.91</time>
   <time name="total">   41.47   41.58</time>
   <energy>
    <i name="e_fr_energy">   -189.48591336 </i>
    <i name="e_wo_entrp">   -189.17356225 </i>
    <i name="e_0_energy">   -189.32973780 </i>
   </energy>
  </scstep>
  <scstep>
   <time name="dav">   44.50   44.61</time>
   <time name="total">   45.16   45.28</time>
   <energy>
    <i name="e_fr_energy">   -188.13235775 </i>
    <i name="e_wo_entrp">   -187.81219996 </i>
    <i name="e_0_energy">   -187.97227886 </i>
   </energy>
  </scstep>
  <scstep>
   <time name="dav">   44.56   44.66</time>
   <time name="total">   45.23   45.34</time>
   <energy>
    <i name="e_fr_energy">   -186.93392920 </i>
    <i name="e_wo_entrp">   -186.58328079 </i>
    <i name="e_0_energy">   -186.75860500 </i>
   </energy>
  </scstep>
  <scstep>
   <time name="dav">   44.82   44.92</time>
   <time name="total">   45.49   45.61</time>
   <energy>
    <i name="e_fr_energy">   -187.02445719 </i>
    <i name="e_wo_entrp">   -186.68602483 </i>
    <i name="e_0_energy">   -186.85524101 </i>
   </energy>
  </scstep>
  <scstep>
   <time name="dav">   42.69   42.79</time>
   <time name="total">   43.37   43.48</time>
   <energy>
    <i name="e_fr_energy">   -186.94134454 </i>
    <i name="e_wo_entrp">   -186.60909476 </i>
    <i name="e_0_energy">   -186.77521965 </i>
   </energy>
  </scstep>
  <scstep>
   <time name="dav">   43.57   43.68</time>
   <time name="total">   44.26   44.37</time>
   <energy>
    <i name="e_fr_energy">   -186.86289995 </i>
    <i name="e_wo_entrp">   -186.52767966 </i>
    <i name="e_0_energy">   -186.69528981 </i>
   </energy>
  </scstep>
  <scstep>
   <time name="dav">   43.06   43.16</time>
   <time name="total">   43.74   43.85</time>
   <energy>
    <i name="e_fr_energy">   -186.82362020 </i>
    <i name="e_wo_entrp">   -186.48024476 </i>
    <i name="e_0_energy">   -186.65193248 </i>
   </energy>
  </scstep>
  <scstep>
   <time name="dav">   42.43   42.53</time>
   <time name="total">   43.12   43.23</time>
   <energy>
    <i name="e_fr_energy">   -186.82003772 </i>
    <i name="e_wo_entrp">   -186.47811797 </i>
    <i name="e_0_energy">   -186.64907785 </i>
   </energy>
  </scstep>
  <scstep>
   <time name="dav">   43.09   43.19</time>
   <time name="total">   43.78   43.88</time>
   <energy>
    <i name="e_fr_energy">   -186.82128457 </i>
    <i name="e_wo_entrp">   -186.48029353 </i>
    <i name="e_0_energy">   -186.65078905 </i>
   </energy>
  </scstep>
  <scstep>
   <time name="dav">   43.02   43.12</time>
   <time name="total">   43.69   43.80</time>
   <energy>
    <i name="e_fr_energy">   -186.81838849 </i>
    <i name="e_wo_entrp">   -186.47758987 </i>
    <i name="e_0_energy">   -186.64798918 </i>
   </energy>
  </scstep>
  <scstep>
   <time name="dav">   39.13   39.22</time>
   <time name="total">   39.81   39.92</time>
   <energy>
    <i name="e_fr_energy">   -186.81798144 </i>
    <i name="e_wo_entrp">   -186.47659382 </i>
    <i name="e_0_energy">   -186.64728763 </i>
   </energy>
  </scstep>
  <scstep>
   <time name="dav">   33.74   33.82</time>
   <time name="total">   34.42   34.51</time>
   <energy>
    <i name="e_fr_energy">   -186.81858702 </i>
    <i name="e_wo_entrp">   -186.47769791 </i>
    <i name="e_0_energy">   -186.64814246 </i>
   </energy>
  </scstep>
  <scstep>
   <time name="dav">   34.18   34.26</time>
   <time name="total">   34.85   34.94</time>
   <energy>
    <i name="e_fr_energy">   -186.81987244 </i>
    <i name="e_wo_entrp">   -186.47883295 </i>
    <i name="e_0_energy">   -186.64935270 </i>
   </energy>
  </scstep>
  <scstep>
   <time name="dav">   25.28   25.34</time>
   <time name="total">   25.94   26.01</time>
   <energy>
    <i name="e_fr_energy">   -186.82067802 </i>
    <i name="e_wo_entrp">   -186.47971743 </i>
    <i name="e_0_energy">   -186.65019773 </i>
   </energy>
  </scstep>
  <scstep>
   <time name="dav">   28.26   28.32</time>
   <time name="total">   28.95   29.03</time>
   <energy>
    <i name="e_fr_energy">   -186.82134760 </i>
    <i name="e_wo_entrp">   -186.48044496 </i>
    <i name="e_0_energy">   -186.65089628 </i>
   </energy>
  </scstep>
  <scstep>
   <time name="dav">   24.95   25.01</time>
   <time name="total">   25.63   25.70</time>
   <energy>
    <i name="e_fr_energy">   -186.82187552 </i>
    <i name="e_wo_entrp">   -186.48093058 </i>
    <i name="e_0_energy">   -186.65140305 </i>
   </energy>
  </scstep>
  <scstep>
   <time name="dav">   23.93   23.99</time>
   <time name="total">   24.62   24.68</time>
   <energy>
    <i name="e_fr_energy">   -186.82228430 </i>
    <i name="e_wo_entrp">   -186.48129322 </i>
    <i name="e_0_energy">   -186.65178876 </i>
   </energy>
  </scstep>
  <scstep>
   <time name="dav">   23.75   23.81</time>
   <time name="total">   24.43   24.50</time>
   <energy>
    <i name="e_fr_energy">   -186.82268917 </i>
    <i name="e_wo_entrp">   -186.48171934 </i>
    <i name="e_0_energy">   -186.65220425 </i>
   </energy>
  </scstep>
  <scstep>
   <time name="dav">   26.10   26.17</time>
   <time name="total">   26.79   26.87</time>
   <energy>
    <i name="e_fr_energy">   -186.82292351 </i>
    <i name="e_wo_entrp">   -186.48195405 </i>
    <i name="e_0_energy">   -186.65243878 </i>
   </energy>
  </scstep>
  <scstep>
   <time name="dav">   26.76   26.82</time>
   <time name="total">   27.46   27.54</time>
   <energy>
    <i name="e_fr_energy">   -186.82302389 </i>
    <i name="e_wo_entrp">   -186.48205167 </i>
    <i name="e_0_energy">   -186.65253778 </i>
   </energy>
  </scstep>
  <scstep>
   <time name="dav">   27.99   28.06</time>
   <time name="total">   28.04   28.11</time>
   <energy>
    <i name="alphaZ">     81.65567618 </i>
    <i name="ewald">  41891.17178115 </i>
    <i name="hartreedc"> -47833.67861506 </i>
    <i name="XCdc">   -231.60992680 </i>
    <i name="pawpsdc">   4192.05725558 </i>
    <i name="pawaedc">  -3610.05168578 </i>
    <i name="eentropy">     -0.34097079 </i>
    <i name="bandstr">  -1437.46909998 </i>
    <i name="atom">   6761.44252427 </i>
    <i name="e_fr_energy">   -186.82306122 </i>
    <i name="e_wo_entrp">   -186.48209043 </i>
    <i name="e_0_energy">   -186.65257582 </i>
   </energy>
  </scstep>
  <structure>
   <crystal>
    <varray name="basis" >
     <v>       8.66999996       5.03999989       0.00000000 </v>
     <v>      -8.66999982       5.04000013       0.00000000 </v>
     <v>       0.00000000       0.00000000      30.00000000 </v>
    </varray>
    <i name="volume">   2621.80797419 </i>
    <varray name="rec_basis" >
     <v>       0.05767013       0.09920635       0.00000000 </v>
     <v>      -0.05767013       0.09920635       0.00000000 </v>
     <v>       0.00000000       0.00000000       0.03333333 </v>
    </varray>
   </crystal>
   <varray name="positions" >
    <v>       1.00000000       0.33333334       0.00000000 </v>
    <v>       0.66666669       0.00000000       0.00000000 </v>
    <v>       0.66666669       0.33333334       0.00000000 </v>
    <v>       0.00000000       0.00000000       0.00000000 </v>
    <v>       0.33333334       0.33333334       0.00000000 </v>
    <v>       0.66666669       0.66666669       0.00000000 </v>
    <v>       0.00000000       0.66666669       0.00000000 </v>
    <v>       0.33333334       0.00000000       0.00000000 </v>
    <v>       0.33333334       0.66666669       0.00000000 </v>
    <v>       0.11068511       0.22244981       0.95539999 </v>
    <v>       0.22244981       0.11068511       0.04460000 </v>
    <v>       0.11068511       0.55578315       0.95539999 </v>
    <v>       0.22244981       0.44401845       0.04460000 </v>
    <v>       0.11068511       0.88911647       0.95539999 </v>
    <v>       0.22244981       0.77735180       0.04460000 </v>
    <v>       0.44401845       0.22244981       0.95539999 </v>
    <v>       0.55578315       0.11068511       0.04460000 </v>
    <v>       0.44401845       0.55578315       0.95539999 </v>
    <v>       0.55578315       0.44401845       0.04460000 </v>
    <v>       0.44401845       0.88911647       0.95539999 </v>
    <v>       0.55578315       0.77735180       0.04460000 </v>
    <v>       0.77735180       0.22244981       0.95539999 </v>
    <v>       0.88911647       0.11068511       0.04460000 </v>
    <v>       0.77735180       0.55578315       0.95539999 </v>
    <v>       0.88911647       0.44401845       0.04460000 </v>
    <v>       0.77735180       0.88911647       0.95539999 </v>
    <v>       0.88911647       0.77735180       0.04460000 </v>
   </varray>
  </structure>
  <varray name="forces" >
   <v>       0.33304308      -0.15137617      -0.03671966 </v>
   <v>       0.33267485       0.15544148      -0.03810175 </v>
   <v>      -0.23999104       0.00176227      -0.01360333 </v>
   <v>      -0.02484767      -0.00357085      -0.11605828 </v>
   <v>      -0.01078549       0.00324693       0.11868653 </v>
   <v>      -0.01162078      -0.01073652       0.11506781 </v>
   <v>      -0.51403157      -0.10515441      -0.07934189 </v>
   <v>      -0.51374306       0.09662690      -0.07757012 </v>
   <v>       0.58779012      -0.00362324       0.12602981 </v>
   <v>      -0.74056169      -0.02178646      -2.10133419 </v>
   <v>       0.02470747       0.02869638       2.90161176 </v>
   <v>       0.44559727      -0.56293212      -2.12501872 </v>
   <v>      -0.61194787      -0.53079732       2.18425698 </v>
   <v>       0.28466579       0.00169277      -2.97571976 </v>
   <v>      -0.09158513       0.00252387       2.86242080 </v>
   <v>       0.63894096       0.53475456      -2.16032995 </v>
   <v>       0.24454740       0.52421836       1.39779864 </v>
   <v>      -0.03127714       0.00305743      -2.89826782 </v>
   <v>       0.73107641       0.00222917       2.11199144 </v>
   <v>       0.44335332       0.56334992      -2.12836914 </v>
   <v>      -0.60932834       0.52996838       2.18800461 </v>
   <v>       0.07677537      -0.00156598      -0.76243639 </v>
   <v>      -0.91212465      -0.00174727       1.46803153 </v>
   <v>       0.64143260      -0.53443708      -2.15663490 </v>
   <v>       0.24257835      -0.52323664       1.39487797 </v>
   <v>      -0.74036421       0.02655054      -2.10102949 </v>
   <v>       0.02502566      -0.02315492       2.90175751 </v>
  </varray>
  <varray name="stress" >
   <v>       7.49215367      -0.00012109      -1.61238407 </v>
   <v>      -0.00012129       4.24992945       0.00011646 </v>
   <v>      -1.61238384       0.00011666      30.32602030 </v>
  </varray>
  <energy>
   <i name="e_fr_energy">   -186.82306122 </i>
   <i name="e_wo_entrp">   -186.65257582 </i>
   <i name="e_0_energy">     -0.34097079 </i>
  </energy>
  <time name="totalsc"> 1091.83 1094.69</time>
 </calculation>
 <calculation>
  <scstep>
   <time name="dav">   29.47   29.54</time>
   <time name="total">   30.15   30.22</time>
   <energy>
    <i name="alphaZ">     78.92453155 </i>
    <i name="ewald">  39380.56732250 </i>
    <i name="hartreedc"> -45337.90227738 </i>
    <i name="XCdc">   -239.07302929 </i>
    <i name="pawpsdc">   4192.04283905 </i>
    <i name="pawaedc">  -3610.03748846 </i>
    <i name="eentropy">     -0.27656483 </i>
    <i name="bandstr">  -1413.18210665 </i>
    <i name="atom">   6761.44252427 </i>
    <i name="e_fr_energy">   -187.49424924 </i>
    <i name="e_wo_entrp">   -187.21768442 </i>
    <i name="e_0_energy">   -187.35596683 </i>
   </energy>
  </scstep>
  <scstep>
   <time name="dav">   41.10   41.20</time>
   <time name="total">   41.77   41.88</time>
   <energy>
    <i name="e_fr_energy">   -189.35765292 </i>
    <i name="e_wo_entrp">   -189.03999510 </i>
    <i name="e_0_energy">   -189.19882401 </i>
   </energy>
  </scstep>
  <scstep>
   <time name="dav">   41.52   41.62</time>
   <time name="total">   42.23   42.34</time>
   <energy>
    <i name="e_fr_energy">   -189.36946333 </i>
    <i name="e_wo_entrp">   -189.10967451 </i>
    <i name="e_0_energy">   -189.23956892 </i>
   </energy>
  </scstep>
  <scstep>
   <time name="dav">   42.24   42.34</time>
   <time name="total">   42.92   43.03</time>
   <energy>
    <i name="e_fr_energy">   -188.74544967 </i>
    <i name="e_wo_entrp">   -188.46678270 </i>
    <i name="e_0_energy">   -188.60611618 </i>
   </energy>
  </scstep>
  <scstep>
   <time name="dav">   41.93   42.03</time>
   <time name="total">   42.62   42.73</time>
   <energy>
    <i name="e_fr_energy">   -188.86052452 </i>
    <i name="e_wo_entrp">   -188.56878695 </i>
    <i name="e_0_energy">   -188.71465574 </i>
   </energy>
  </scstep>
  <scstep>
   <time name="dav">   42.83   42.94</time>
   <time name="total">   43.57   43.68</time>
   <energy>
    <i name="e_fr_energy">   -188.70960323 </i>
    <i name="e_wo_entrp">   -188.43413243 </i>
    <i name="e_0_energy">   -188.57186783 </i>
   </energy>
  </scstep>
  <scstep>
   <time name="dav">   39.41   39.50</time>
   <time name="total">   40.09   40.19</time>
   <energy>
    <i name="e_fr_energy">   -188.67794929 </i>
    <i name="e_wo_entrp">   -188.39908913 </i>
    <i name="e_0_energy">   -188.53851921 </i>
   </energy>
  </scstep>
  <scstep>
   <time name="dav">   40.95   41.05</time>
   <time name="total">   41.64   41.75</time>
   <energy>
    <i name="e_fr_energy">   -188.66150035 </i>
    <i name="e_wo_entrp">   -188.38441015 </i>
    <i name="e_0_energy">   -188.52295525 </i>
   </energy>
  </scstep>
  <scstep>
   <time name="dav">   41.11   41.21</time>
   <time name="total">   41.80   41.91</time>
   <energy>
    <i name="e_fr_energy">   -188.66043876 </i>
    <i name="e_wo_entrp">   -188.38370333 </i>
    <i name="e_0_energy">   -188.52207104 </i>
   </energy>
  </scstep>
  <scstep>
   <time name="dav">   44.22   44.32</time>
   <time name="total">   44.92   45.03</time>
   <energy>
    <i name="e_fr_energy">   -188.66020510 </i>
    <i name="e_wo_entrp">   -188.38365832 </i>
    <i name="e_0_energy">   -188.52193171 </i>
   </energy>
  </scstep>
  <scstep>
   <time name="dav">   42.99   43.10</time>
   <time name="total">   43.66   43.78</time>
   <energy>
    <i name="e_fr_energy">   -188.65911561 </i>
    <i name="e_wo_entrp">   -188.38301776 </i>
    <i name="e_0_energy">   -188.52106669 </i>
   </energy>
  </scstep>
  <scstep>
   <time name="dav">   39.33   39.42</time>
   <time name="total">   39.38   39.48</time>
   <energy>
    <i name="alphaZ">     78.92453155 </i>
    <i name="ewald">  39380.56732250 </i>
    <i name="hartreedc"> -45348.85388694 </i>
    <i name="XCdc">   -237.97752193 </i>
    <i name="pawpsdc">   3950.95441946 </i>
    <i name="pawaedc">  -3365.45902660 </i>
    <i name="eentropy">     -0.27619516 </i>
    <i name="bandstr">  -1407.98135880 </i>
    <i name="atom">   6761.44252427 </i>
    <i name="e_fr_energy">   -188.65919166 </i>
    <i name="e_wo_entrp">   -188.38299650 </i>
    <i name="e_0_energy">   -188.52109408 </i>
   </energy>
  </scstep>
  <structure>
   <crystal>
    <varray name="basis" >
     <v>       8.85992377       5.10262503       0.00000000 </v>
     <v>      -8.85992720       5.10263141       0.00000000 </v>
     <v>       0.00000000       0.00000000      30.00000000 </v>
    </varray>
    <i name="volume">   2712.53435062 </i>
    <varray name="rec_basis" >
     <v>       0.05643392       0.09798874       0.00000000 </v>
     <v>      -0.05643385       0.09798870       0.00000000 </v>
     <v>       0.00000000       0.00000000       0.03333333 </v>
    </varray>
   </crystal>
   <varray name="positions" >
    <v>       1.00020210       0.33168228      -0.00005905 </v>
    <v>       0.66833618      -0.00018162      -0.00006127 </v>
    <v>       0.66600743       0.33400947      -0.00002188 </v>
    <v>      -0.00008622       0.00005204      -0.00018663 </v>
    <v>       0.33331888       0.33337889       0.00019086 </v>
    <v>       0.66658297       0.66664763       0.00018504 </v>
    <v>      -0.00193338       0.66759354      -0.00012759 </v>
    <v>       0.33236648       0.00189177      -0.00012474 </v>
    <v>       0.33495133       0.66501402       0.00020267 </v>
    <v>       0.10852048       0.22440590       0.95202086 </v>
    <v>       0.22265589       0.11075371       0.04926605 </v>
    <v>       0.10923065       0.55184925       0.95198277 </v>
    <v>       0.21820689       0.44318061       0.04811248 </v>
    <v>       0.11148520       0.88833258       0.95061477 </v>
    <v>       0.22220708       0.77761868       0.04920302 </v>
    <v>       0.44835541       0.22323150       0.95192599 </v>
    <v>       0.55897242       0.11251364       0.04684778 </v>
    <v>       0.44394607       0.55588480       0.95073932 </v>
    <v>       0.55782779       0.44199515       0.04799627 </v>
    <v>       0.44794811       0.89057917       0.95197738 </v>
    <v>       0.55662432       0.78158346       0.04811850 </v>
    <v>       0.77755790       0.22222871       0.95417392 </v>
    <v>       0.88657043       0.11321442       0.04696072 </v>
    <v>       0.77657856       0.55144078       0.95193193 </v>
    <v>       0.88728716       0.44083936       0.04684309 </v>
    <v>       0.77541906       0.89130335       0.95202135 </v>
    <v>       0.88907527       0.77717135       0.04926628 </v>
   </varray>
  </structure>
  <varray name="forces" >
   <v>       0.29212171      -0.05202472      -0.08926945 </v>
   <v>       0.29179323       0.05306739      -0.08831737 </v>
   <v>      -0.22476617       0.00030102       0.09364427 </v>
   <v>       0.38169730      -0.00105744      -0.05781074 </v>
   <v>      -0.05445887       0.04447056       0.03065743 </v>
   <v>      -0.05528384      -0.04620338       0.03232653 </v>
   <v>      -0.60350830       0.13642933       0.06234956 </v>
   <v>      -0.60303672      -0.13668269       0.06095710 </v>
   <v>       0.64931769       0.00143899      -0.06098516 </v>
   <v>      -0.06283313      -0.00429846      -0.07196940 </v>
   <v>       0.12932388       0.00176427       0.13581439 </v>
   <v>      -0.06173563       0.07022174       0.26232214 </v>
   <v>      -0.06798562       0.04228737       0.10720197 </v>
   <v>       0.08887652       0.00012092      -0.19459414 </v>
   <v>       0.01864724      -0.00056036      -0.26672694 </v>
   <v>       0.07288766      -0.04698528      -0.05378855 </v>
   <v>      -0.05929392      -0.05487904      -0.23835031 </v>
   <v>      -0.12929159       0.00048199      -0.09651780 </v>
   <v>       0.07148418       0.00025314       0.10871802 </v>
   <v>      -0.06121900      -0.07106267       0.26487050 </v>
   <v>      -0.06780982      -0.04226368       0.10462131 </v>
   <v>       0.02174029      -0.00099147       0.20837730 </v>
   <v>      -0.04731725      -0.00035430      -0.02436039 </v>
   <v>       0.07317674       0.04766245      -0.05612162 </v>
   <v>      -0.05960538       0.05454137      -0.23624217 </v>
   <v>      -0.06279366       0.00507074      -0.07177734 </v>
   <v>       0.12987244      -0.00074780       0.13497086 </v>
  </varray>
  <varray name="stress" >
   <v>     -19.91715950      -0.00028769       0.15967320 </v>
   <v>      -0.00028777     -19.42423822      -0.00023169 </v>
   <v>       0.15967334      -0.00023179      -1.73722187 </v>
  </varray>
  <energy>
   <i name="e_fr_energy">   -188.65919166 </i>
   <i name="e_wo_entrp">   -188.52109408 </i>
   <i name="e_0_energy">     -0.27619516 </i>
  </energy>
  <time name="totalsc">  552.77  554.20</time>
 </calculation>
 <calculation>
  <scstep>
   <time name="dav">   32.43   32.51</time>
   <time name="total">   33.09   33.17</time>
   <energy>
    <i name="alphaZ">     82.36821548 </i>
    <i name="ewald">  41314.73098161 </i>
    <i name="hartreedc"> -47313.83513520 </i>
    <i name="XCdc">   -233.83318842 </i>
    <i name="pawpsdc">   3950.34658248 </i>
    <i name="pawaedc">  -3364.84551215 </i>
    <i name="eentropy">     -0.23139831 </i>
    <i name="bandstr">  -1386.74216075 </i>
    <i name="atom">   6761.44252427 </i>
    <i name="e_fr_energy">   -190.59909098 </i>
    <i name="e_wo_entrp">   -190.36769267 </i>
    <i name="e_0_energy">   -190.48339183 </i>
   </energy>
  </scstep>
  <scstep>
   <time name="dav">   39.44   39.53</time>
   <time name="total">   40.10   40.21</time>
   <energy>
    <i name="e_fr_energy">   -190.53503939 </i>
    <i name="e_wo_entrp">   -190.31909037 </i>
    <i name="e_0_energy">   -190.42706488 </i>
   </energy>
  </scstep>
  <scstep>
   <time name="dav">   41.31   41.41</time>
   <time name="total">   41.98   42.09</time>
   <energy>
    <i name="e_fr_energy">   -190.08117136 </i>
    <i name="e_wo_entrp">   -189.83338811 </i>
    <i name="e_0_energy">   -189.95727973 </i>
   </energy>
  </scstep>
  <scstep>
   <time name="dav">   43.00   43.11</time>
   <time name="total">   43.68   43.79</time>
   <energy>
    <i name="e_fr_energy">   -189.86305441 </i>
    <i name="e_wo_entrp">   -189.64073594 </i>
    <i name="e_0_energy">   -189.75189517 </i>
   </energy>
  </scstep>
  <scstep>
   <time name="dav">   39.59   39.68</time>
   <time name="total">   40.25   40.36</time>
   <energy>
    <i name="e_fr_energy">   -189.77340192 </i>
    <i name="e_wo_entrp">   -189.54108533 </i>
    <i name="e_0_energy">   -189.65724362 </i>
   </energy>
  </scstep>
  <scstep>
   <time name="dav">   40.13   40.23</time>
   <time name="total">   40.80   40.91</time>
   <energy>
    <i name="e_fr_energy">   -189.76329249 </i>
    <i name="e_wo_entrp">   -189.53156058 </i>
    <i name="e_0_energy">   -189.64742654 </i>
   </energy>
  </scstep>
  <scstep>
   <time name="dav">   41.26   41.36</time>
   <time name="total">   41.95   42.06</time>
   <energy>
    <i name="e_fr_energy">   -189.75849310 </i>
    <i name="e_wo_entrp">   -189.52741938 </i>
    <i name="e_0_energy">   -189.64295624 </i>
   </energy>
  </scstep>
  <scstep>
   <time name="dav">   36.69   36.78</time>
   <time name="total">   37.36   37.46</time>
   <energy>
    <i name="e_fr_energy">   -189.75812734 </i>
    <i name="e_wo_entrp">   -189.52701206 </i>
    <i name="e_0_energy">   -189.64256970 </i>
   </energy>
  </scstep>
  <scstep>
   <time name="dav">   34.24   34.32</time>
   <time name="total">   34.90   34.99</time>
   <energy>
    <i name="e_fr_energy">   -189.75835884 </i>
    <i name="e_wo_entrp">   -189.52700114 </i>
    <i name="e_0_energy">   -189.64267999 </i>
   </energy>
  </scstep>
  <scstep>
   <time name="dav">   31.26   31.34</time>
   <time name="total">   31.31   31.39</time>
   <energy>
    <i name="alphaZ">     82.36821548 </i>
    <i name="ewald">  41314.73098161 </i>
    <i name="hartreedc"> -47286.76572070 </i>
    <i name="XCdc">   -235.23217277 </i>
    <i name="pawpsdc">   4038.69577068 </i>
    <i name="pawaedc">  -3454.39594633 </i>
    <i name="eentropy">     -0.23134674 </i>
    <i name="bandstr">  -1410.37073082 </i>
    <i name="atom">   6761.44252427 </i>
    <i name="e_fr_energy">   -189.75842530 </i>
    <i name="e_wo_entrp">   -189.52707857 </i>
    <i name="e_0_energy">   -189.64275194 </i>
   </energy>
  </scstep>
  <structure>
   <crystal>
    <varray name="basis" >
     <v>       8.67039015       4.99616807       0.00000000 </v>
     <v>      -8.67039666       4.99617979       0.00000000 </v>
     <v>       0.00000000       0.00000000      30.00000000 </v>
    </varray>
    <i name="volume">   2599.12760867 </i>
    <varray name="rec_basis" >
     <v>       0.05766758       0.10007662       0.00000000 </v>
     <v>      -0.05766744       0.10007654       0.00000000 </v>
     <v>       0.00000000       0.00000000       0.03333333 </v>
    </varray>
   </crystal>
   <varray name="positions" >
    <v>       1.00039715       0.33131259      -0.00011002 </v>
    <v>       0.66870731      -0.00037460      -0.00011170 </v>
    <v>       0.66579066       0.33422724       0.00003159 </v>
    <v>       0.00028097      -0.00031870      -0.00021964 </v>
    <v>       0.33334087       0.33350617       0.00020836 </v>
    <v>       0.66645198       0.66662352       0.00020350 </v>
    <v>      -0.00228777       0.66840590      -0.00009199 </v>
    <v>       0.33155415       0.00224528      -0.00008994 </v>
    <v>       0.33558140       0.66438878       0.00016785 </v>
    <v>       0.10845253       0.22445942       0.95197977 </v>
    <v>       0.22278386       0.11063166       0.04934359 </v>
    <v>       0.10928884       0.55202679       0.95213255 </v>
    <v>       0.21821215       0.44331730       0.04817368 </v>
    <v>       0.11157131       0.88824687       0.95050366 </v>
    <v>       0.22222417       0.77759971       0.04905074 </v>
    <v>       0.44834701       0.22308218       0.95189528 </v>
    <v>       0.55882299       0.11247884       0.04671169 </v>
    <v>       0.44382190       0.55601059       0.95068421 </v>
    <v>       0.55789732       0.44192648       0.04805834 </v>
    <v>       0.44776966       0.89051907       0.95212861 </v>
    <v>       0.55648784       0.78157807       0.04817824 </v>
    <v>       0.77757725       0.22220603       0.95429290 </v>
    <v>       0.88652409       0.11325957       0.04694681 </v>
    <v>       0.77672929       0.55145004       0.95189989 </v>
    <v>       0.88732109       0.44098852       0.04670820 </v>
    <v>       0.77536687       0.89137256       0.95198037 </v>
    <v>       0.88919956       0.77704456       0.04934334 </v>
   </varray>
  </structure>
  <varray name="forces" >
   <v>       0.30143063       0.02148436      -0.07732116 </v>
   <v>       0.29574873      -0.00931787      -0.07632993 </v>
   <v>      -0.25458943       0.00303953       0.09720779 </v>
   <v>       0.52360523       0.00334307      -0.03088859 </v>
   <v>      -0.08217234       0.05461177       0.00371349 </v>
   <v>      -0.07070163      -0.06531436       0.00568754 </v>
   <v>      -0.63622904       0.22831533       0.07219443 </v>
   <v>      -0.64140701      -0.23610990       0.06987252 </v>
   <v>       0.66532254      -0.01169216      -0.08656495 </v>
   <v>      -0.13046620      -0.00362453      -0.55491882 </v>
   <v>       0.02634440      -0.00045208       0.70224590 </v>
   <v>      -0.00284793      -0.05247642      -0.20572773 </v>
   <v>      -0.06490606      -0.10836550       0.63125435 </v>
   <v>       0.01227337       0.00049238      -0.80168781 </v>
   <v>       0.02959063       0.00012850       0.25436669 </v>
   <v>       0.06002672       0.09033993      -0.56312772 </v>
   <v>       0.01912507       0.06865768       0.20271265 </v>
   <v>      -0.02406519       0.00127979      -0.66187424 </v>
   <v>       0.14422562       0.00094291       0.60571545 </v>
   <v>      -0.00599802       0.04641096      -0.20645693 </v>
   <v>      -0.06127335       0.10307035       0.63107792 </v>
   <v>       0.01218503       0.00709697      -0.20181386 </v>
   <v>      -0.10648824       0.00766371       0.41782366 </v>
   <v>       0.05997723      -0.08826913      -0.56672796 </v>
   <v>       0.02668918      -0.06789816       0.19953762 </v>
   <v>      -0.12224904       0.00472009      -0.55957128 </v>
   <v>       0.02684911       0.00192278       0.69960098 </v>
  </varray>
  <varray name="stress" >
   <v>     -10.17619976       0.00724895       0.16693962 </v>
   <v>       0.00724887      -9.74750060       0.00137287 </v>
   <v>       0.16693971       0.00137272       6.55082692 </v>
  </varray>
  <energy>
   <i name="e_fr_energy">   -189.75842530 </i>
   <i name="e_wo_entrp">   -189.64275194 </i>
   <i name="e_0_energy">     -0.23134674 </i>
  </energy>
  <time name="totalsc">  442.67  443.82</time>
 </calculation>
 <calculation>
  <scstep>
   <time name="dav">   29.20   29.27</time>
   <time name="total">   29.86   29.94</time>
   <energy>
    <i name="alphaZ">     85.84888571 </i>
    <i name="ewald">  42846.60219421 </i>
    <i name="hartreedc"> -48863.11824429 </i>
    <i name="XCdc">   -232.95097301 </i>
    <i name="pawpsdc">   4039.28175951 </i>
    <i name="pawaedc">  -3454.98562598 </i>
    <i name="eentropy">     -0.18904004 </i>
    <i name="bandstr">  -1373.28927223 </i>
    <i name="atom">   6761.44252427 </i>
    <i name="e_fr_energy">   -191.35779186 </i>
    <i name="e_wo_entrp">   -191.16875181 </i>
    <i name="e_0_energy">   -191.26327183 </i>
   </energy>
  </scstep>
  <scstep>
   <time name="dav">   44.21   44.32</time>
   <time name="total">   44.87   44.99</time>
   <energy>
    <i name="e_fr_energy">   -191.13693871 </i>
    <i name="e_wo_entrp">   -190.95396146 </i>
    <i name="e_0_energy">   -191.04545009 </i>
   </energy>
  </scstep>
  <scstep>
   <time name="dav">   40.44   40.53</time>
   <time name="total">   41.07   41.18</time>
   <energy>
    <i name="e_fr_energy">   -191.34021689 </i>
    <i name="e_wo_entrp">   -191.12190739 </i>
    <i name="e_0_energy">   -191.23106214 </i>
   </energy>
  </scstep>
  <scstep>
   <time name="dav">   42.70   42.80</time>
   <time name="total">   43.35   43.46</time>
   <energy>
    <i name="e_fr_energy">   -190.91851528 </i>
    <i name="e_wo_entrp">   -190.73601302 </i>
    <i name="e_0_energy">   -190.82726415 </i>
   </energy>
  </scstep>
  <scstep>
   <time name="dav">   37.55   37.64</time>
   <time name="total">   38.20   38.30</time>
   <energy>
    <i name="e_fr_energy">   -190.81065451 </i>
    <i name="e_wo_entrp">   -190.61795395 </i>
    <i name="e_0_energy">   -190.71430423 </i>
   </energy>
  </scstep>
  <scstep>
   <time name="dav">   42.15   42.25</time>
   <time name="total">   42.80   42.91</time>
   <energy>
    <i name="e_fr_energy">   -190.80498842 </i>
    <i name="e_wo_entrp">   -190.61117356 </i>
    <i name="e_0_energy">   -190.70808099 </i>
   </energy>
  </scstep>
  <scstep>
   <time name="dav">   39.63   39.72</time>
   <time name="total">   40.29   40.39</time>
   <energy>
    <i name="e_fr_energy">   -190.78744238 </i>
    <i name="e_wo_entrp">   -190.59628840 </i>
    <i name="e_0_energy">   -190.69186539 </i>
   </energy>
  </scstep>
  <scstep>
   <time name="dav">   35.14   35.22</time>
   <time name="total">   35.79   35.88</time>
   <energy>
    <i name="e_fr_energy">   -190.78280541 </i>
    <i name="e_wo_entrp">   -190.59072966 </i>
    <i name="e_0_energy">   -190.68676754 </i>
   </energy>
  </scstep>
  <scstep>
   <time name="dav">   42.81   42.91</time>
   <time name="total">   43.40   43.52</time>
   <energy>
    <i name="e_fr_energy">   -190.78320941 </i>
    <i name="e_wo_entrp">   -190.59096809 </i>
    <i name="e_0_energy">   -190.68708875 </i>
   </energy>
  </scstep>
  <scstep>
   <time name="dav">   37.17   37.26</time>
   <time name="total">   37.81   37.91</time>
   <energy>
    <i name="e_fr_energy">   -190.78300148 </i>
    <i name="e_wo_entrp">   -190.59055887 </i>
    <i name="e_0_energy">   -190.68678017 </i>
   </energy>
  </scstep>
  <scstep>
   <time name="dav">   35.39   35.48</time>
   <time name="total">   36.04   36.14</time>
   <energy>
    <i name="e_fr_energy">   -190.78276812 </i>
    <i name="e_wo_entrp">   -190.59048196 </i>
    <i name="e_0_energy">   -190.68662504 </i>
   </energy>
  </scstep>
  <scstep>
   <time name="dav">   26.73   26.79</time>
   <time name="total">   26.78   26.85</time>
   <energy>
    <i name="alphaZ">     85.84888571 </i>
    <i name="ewald">  42846.60219421 </i>
    <i name="hartreedc"> -48834.68404319 </i>
    <i name="XCdc">   -234.27837697 </i>
    <i name="pawpsdc">   4064.69298437 </i>
    <i name="pawaedc">  -3480.57078414 </i>
    <i name="eentropy">     -0.19232420 </i>
    <i name="bandstr">  -1399.64382156 </i>
    <i name="atom">   6761.44252427 </i>
    <i name="e_fr_energy">   -190.78276149 </i>
    <i name="e_wo_entrp">   -190.59043729 </i>
    <i name="e_0_energy">   -190.68659939 </i>
   </energy>
  </scstep>
  <structure>
   <crystal>
    <varray name="basis" >
     <v>       8.48677093       4.89776224       0.00000000 </v>
     <v>      -8.48639201       4.89710509       0.00000000 </v>
     <v>       0.00000000       0.00000000      30.00000000 </v>
    </varray>
    <i name="volume">   2493.74818506 </i>
    <varray name="rec_basis" >
     <v>       0.05891259       0.10209201       0.00000000 </v>
     <v>      -0.05892049       0.10209657       0.00000000 </v>
     <v>       0.00000000       0.00000000       0.03333333 </v>
    </varray>
   </crystal>
   <varray name="positions" >
    <v>       1.00181721       0.33052628      -0.00026016 </v>
    <v>       0.66956932      -0.00166260      -0.00025975 </v>
    <v>       0.66485343       0.33521618       0.00023601 </v>
    <v>       0.00240853      -0.00238251      -0.00026095 </v>
    <v>       0.33337195       0.33421055       0.00019335 </v>
    <v>       0.66571726       0.66644407       0.00019283 </v>
    <v>      -0.00297497       0.67241298       0.00006589 </v>
    <v>       0.32745270       0.00289167       0.00006235 </v>
    <v>       0.33790401       0.66185442      -0.00003307 </v>
    <v>       0.10786323       0.22500658       0.95042302 </v>
    <v>       0.22272388       0.11067499       0.05127594 </v>
    <v>       0.10872940       0.55131992       0.95131188 </v>
    <v>       0.21692884       0.44249457       0.04992323 </v>
    <v>       0.11151041       0.88831579       0.94833101 </v>
    <v>       0.22234929       0.77747962       0.05001688 </v>
    <v>       0.44945262       0.22379040       0.95029929 </v>
    <v>       0.55974076       0.11303456       0.04750338 </v>
    <v>       0.44389501       0.55595749       0.94883642 </v>
    <v>       0.55853020       0.44130884       0.04973217 </v>
    <v>       0.44840891       0.89104413       0.95130367 </v>
    <v>       0.55728223       0.78279692       0.04992945 </v>
    <v>       0.77767224       0.22224017       0.95352909 </v>
    <v>       0.88612258       0.11379696       0.04818515 </v>
    <v>       0.77603685       0.55036153       0.95029537 </v>
    <v>       0.88681144       0.44003965       0.04748885 </v>
    <v>       0.77486876       0.89192815       0.95040990 </v>
    <v>       0.88916834       0.77711313       0.05126870 </v>
   </varray>
  </structure>
  <varray name="forces" >
   <v>       0.30852455       0.02519271      -0.02170139 </v>
   <v>       0.30981021      -0.03136491      -0.02304290 </v>
   <v>      -0.22378651      -0.00150951       0.06882120 </v>
   <v>       0.64119929      -0.00322120       0.03520624 </v>
   <v>      -0.11645742       0.10701619      -0.02817482 </v>
   <v>      -0.11791766      -0.10848833      -0.02522080 </v>
   <v>      -0.73473442       0.28450835       0.02126995 </v>
   <v>      -0.73206739      -0.28546986       0.01743284 </v>
   <v>       0.81798180       0.00286233      -0.02952183 </v>
   <v>       0.01311091      -0.02795586      -0.39107271 </v>
   <v>      -0.10284264       0.02078499       0.55056486 </v>
   <v>      -0.04392665       0.00685891      -0.02833847 </v>
   <v>       0.00804192      -0.04781442       0.48178111 </v>
   <v>      -0.02788341      -0.00007463      -0.71741984 </v>
   <v>       0.04645262       0.00000420       0.04044390 </v>
   <v>      -0.00855559       0.02057697      -0.36050163 </v>
   <v>      -0.02283987      -0.01709254       0.07499202 </v>
   <v>       0.10283744       0.00027121      -0.54109297 </v>
   <v>       0.01667819      -0.00151285       0.45220766 </v>
   <v>      -0.03926512      -0.00089248      -0.01505000 </v>
   <v>       0.00341799       0.05230885       0.46546400 </v>
   <v>       0.00609232      -0.00312227      -0.20109810 </v>
   <v>       0.02835898      -0.00436273       0.28591620 </v>
   <v>      -0.00693805      -0.01844307      -0.36445729 </v>
   <v>      -0.02825756       0.01867032       0.08364667 </v>
   <v>       0.00593867       0.03056957      -0.37822526 </v>
   <v>      -0.10297259      -0.01829995       0.54717136 </v>
  </varray>
  <varray name="stress" >
   <v>      -5.49045750      -0.01137259      -0.16934222 </v>
   <v>      -0.01137262      -5.90320819      -0.00472509 </v>
   <v>      -0.16934222      -0.00472519       4.54498276 </v>
  </varray>
  <energy>
   <i name="e_fr_energy">   -190.78276149 </i>
   <i name="e_wo_entrp">   -190.68659939 </i>
   <i name="e_0_energy">     -0.19232420 </i>
  </energy>
  <time name="totalsc">  517.39  518.75</time>
 </calculation>
 <calculation>
  <scstep>
   <time name="dav">   29.14   29.21</time>
   <time name="total">   29.78   29.85</time>
   <energy>
    <i name="alphaZ">     90.03712069 </i>
    <i name="ewald">  44621.18686116 </i>
    <i name="hartreedc"> -50662.04663566 </i>
    <i name="XCdc">   -231.87747391 </i>
    <i name="pawpsdc">   4064.45280510 </i>
    <i name="pawaedc">  -3480.32213968 </i>
    <i name="eentropy">     -0.16541304 </i>
    <i name="bandstr">  -1354.90510724 </i>
    <i name="atom">   6761.44252427 </i>
    <i name="e_fr_energy">   -192.19745831 </i>
    <i name="e_wo_entrp">   -192.03204527 </i>
    <i name="e_0_energy">   -192.11475179 </i>
   </energy>
  </scstep>
  <scstep>
   <time name="dav">   34.96   35.04</time>
   <time name="total">   35.59   35.69</time>
   <energy>
    <i name="e_fr_energy">   -191.91395791 </i>
    <i name="e_wo_entrp">   -191.73771767 </i>
    <i name="e_0_energy">   -191.82583779 </i>
   </energy>
  </scstep>
  <scstep>
   <time name="dav">   36.93   37.01</time>
   <time name="total">   37.57   37.67</time>
   <energy>
    <i name="e_fr_energy">   -191.73947453 </i>
    <i name="e_wo_entrp">   -191.57696679 </i>
    <i name="e_0_energy">   -191.65822066 </i>
   </energy>
  </scstep>
  <scstep>
   <time name="dav">   38.68   38.78</time>
   <time name="total">   39.32   39.42</time>
   <energy>
    <i name="e_fr_energy">   -191.78768137 </i>
    <i name="e_wo_entrp">   -191.59908194 </i>
    <i name="e_0_energy">   -191.69338165 </i>
   </energy>
  </scstep>
  <scstep>
   <time name="dav">   37.33   37.42</time>
   <time name="total">   37.97   38.07</time>
   <energy>
    <i name="e_fr_energy">   -191.62141553 </i>
    <i name="e_wo_entrp">   -191.44374194 </i>
    <i name="e_0_energy">   -191.53257873 </i>
   </energy>
  </scstep>
  <scstep>
   <time name="dav">   39.70   39.79</time>
   <time name="total">   40.34   40.44</time>
   <energy>
    <i name="e_fr_energy">   -191.59461366 </i>
    <i name="e_wo_entrp">   -191.42866689 </i>
    <i name="e_0_energy">   -191.51164028 </i>
   </energy>
  </scstep>
  <scstep>
   <time name="dav">   41.11   41.21</time>
   <time name="total">   41.74   41.85</time>
   <energy>
    <i name="e_fr_energy">   -191.57710809 </i>
    <i name="e_wo_entrp">   -191.40270950 </i>
    <i name="e_0_energy">   -191.48990880 </i>
   </energy>
  </scstep>
  <scstep>
   <time name="dav">   41.24   41.35</time>
   <time name="total">   41.87   41.99</time>
   <energy>
    <i name="e_fr_energy">   -191.57075934 </i>
    <i name="e_wo_entrp">   -191.39823281 </i>
    <i name="e_0_energy">   -191.48449607 </i>
   </energy>
  </scstep>
  <scstep>
   <time name="dav">   38.84   38.93</time>
   <time name="total">   39.48   39.58</time>
   <energy>
    <i name="e_fr_energy">   -191.57176257 </i>
    <i name="e_wo_entrp">   -191.39878468 </i>
    <i name="e_0_energy">   -191.48527363 </i>
   </energy>
  </scstep>
  <scstep>
   <time name="dav">   37.84   37.93</time>
   <time name="total">   38.47   38.58</time>
   <energy>
    <i name="e_fr_energy">   -191.57093510 </i>
    <i name="e_wo_entrp">   -191.39788802 </i>
    <i name="e_0_energy">   -191.48441156 </i>
   </energy>
  </scstep>
  <scstep>
   <time name="dav">   24.28   24.33</time>
   <time name="total">   24.32   24.39</time>
   <energy>
    <i name="alphaZ">     90.03712069 </i>
    <i name="ewald">  44621.18686116 </i>
    <i name="hartreedc"> -50629.57718256 </i>
    <i name="XCdc">   -233.31529135 </i>
    <i name="pawpsdc">   4089.99820946 </i>
    <i name="pawaedc">  -3506.00612756 </i>
    <i name="eentropy">     -0.17285825 </i>
    <i name="bandstr">  -1385.16418192 </i>
    <i name="atom">   6761.44252427 </i>
    <i name="e_fr_energy">   -191.57092605 </i>
    <i name="e_wo_entrp">   -191.39806781 </i>
    <i name="e_0_energy">   -191.48449693 </i>
   </energy>
  </scstep>
  <structure>
   <crystal>
    <varray name="basis" >
     <v>       8.29599762       4.77679767       0.00000000 </v>
     <v>      -8.29608262       4.77694552       0.00000000 </v>
     <v>       0.00000000       0.00000000      30.00000000 </v>
    </varray>
    <i name="volume">   2377.74710354 </i>
    <varray name="rec_basis" >
     <v>       0.06027065       0.10467155       0.00000000 </v>
     <v>      -0.06026879       0.10467048       0.00000000 </v>
     <v>       0.00000000       0.00000000       0.03333333 </v>
    </varray>
   </crystal>
   <varray name="positions" >
    <v>       1.00438167       0.32892290      -0.00035924 </v>
    <v>       0.67115209      -0.00423656      -0.00036275 </v>
    <v>       0.66327199       0.33679084       0.00051456 </v>
    <v>       0.00681746      -0.00682395      -0.00013564 </v>
    <v>       0.33377117       0.33620032       0.00007795 </v>
    <v>       0.66369298       0.66597000       0.00008845 </v>
    <v>      -0.00440884       0.68079268       0.00018045 </v>
    <v>       0.31903480       0.00428207       0.00016224 </v>
    <v>       0.34327439       0.65643688      -0.00019599 </v>
    <v>       0.10743581       0.22485988       0.94842667 </v>
    <v>       0.22219452       0.11161267       0.05394661 </v>
    <v>       0.10822678       0.55115840       0.95070017 </v>
    <v>       0.21587855       0.44145536       0.05229375 </v>
    <v>       0.11124361       0.88858456       0.94502330 </v>
    <v>       0.22266555       0.77716741       0.05073976 </v>
    <v>       0.45014239       0.22451321       0.94837654 </v>
    <v>       0.55999768       0.11328828       0.04824391 </v>
    <v>       0.44464064       0.55522537       0.94621784 </v>
    <v>       0.55885252       0.44096235       0.05196822 </v>
    <v>       0.44862692       0.89156533       0.95073265 </v>
    <v>       0.55832632       0.78388937       0.05224804 </v>
    <v>       0.77770459       0.22220860       0.95239929 </v>
    <v>       0.88609377       0.11380276       0.04973002 </v>
    <v>       0.77535140       0.54969130       0.94835664 </v>
    <v>       0.88656462       0.43981591       0.04825175 </v>
    <v>       0.77502209       0.89240695       0.94844946 </v>
    <v>       0.88825899       0.77767155       0.05392524 </v>
   </varray>
  </structure>
  <varray name="forces" >
   <v>       0.35519457      -0.07068802      -0.02861162 </v>
   <v>       0.35334248       0.07304333      -0.02782514 </v>
   <v>      -0.17860276      -0.00135007       0.02934459 </v>
   <v>       0.19685851       0.00256401       0.12769261 </v>
   <v>      -0.06419679       0.15476185      -0.00915011 </v>
   <v>      -0.06179019      -0.16000863      -0.01579230 </v>
   <v>      -0.53149074       0.14386599      -0.10535798 </v>
   <v>      -0.53525345      -0.14530713      -0.09380947 </v>
   <v>       0.63120717      -0.00620704       0.09568671 </v>
   <v>       0.14228747      -0.07626015      -0.06987935 </v>
   <v>      -0.20739943       0.06067315       0.27408423 </v>
   <v>      -0.12416025       0.14649543       0.31932948 </v>
   <v>       0.08254857       0.03436966       0.18552264 </v>
   <v>      -0.03888599      -0.00204076      -0.44504017 </v>
   <v>       0.11257363       0.00139868      -0.31694429 </v>
   <v>      -0.06319077      -0.06223314      -0.08695162 </v>
   <v>      -0.11974529      -0.19750237      -0.15587737 </v>
   <v>       0.23696481      -0.00047535      -0.39017258 </v>
   <v>      -0.08506879       0.00018143       0.15010518 </v>
   <v>      -0.12499043      -0.14583869       0.31589525 </v>
   <v>       0.08134265      -0.03076644       0.19239064 </v>
   <v>       0.02582390       0.00118195       0.00808425 </v>
   <v>       0.16953912       0.00009844       0.07534097 </v>
   <v>      -0.06414908       0.06350174      -0.08320463 </v>
   <v>      -0.11972905       0.20048026      -0.15497560 </v>
   <v>       0.14247754       0.07564273      -0.07136359 </v>
   <v>      -0.21150742      -0.05958086       0.28147926 </v>
  </varray>
  <varray name="stress" >
   <v>       0.62310110       0.01334729      -0.49800838 </v>
   <v>       0.01334734      -0.16030215       0.00994948 </v>
   <v>      -0.49800853       0.00994945       0.10695960 </v>
  </varray>
  <energy>
   <i name="e_fr_energy">   -191.57092605 </i>
   <i name="e_wo_entrp">   -191.48449693 </i>
   <i name="e_0_energy">     -0.17285825 </i>
  </energy>
  <time name="totalsc">  463.94  465.16</time>
 </calculation>
 <calculation>
  <scstep>
   <time name="dav">   29.00   29.07</time>
   <time name="total">   29.65   29.72</time>
   <energy>
    <i name="alphaZ">     89.85389629 </i>
    <i name="ewald">  44513.36952272 </i>
    <i name="hartreedc"> -50520.59006361 </i>
    <i name="XCdc">   -233.54713683 </i>
    <i name="pawpsdc">   4090.04515609 </i>
    <i name="pawaedc">  -3506.05062526 </i>
    <i name="eentropy">     -0.16815104 </i>
    <i name="bandstr">  -1386.03024684 </i>
    <i name="atom">   6761.44252427 </i>
    <i name="e_fr_energy">   -191.67512422 </i>
    <i name="e_wo_entrp">   -191.50697318 </i>
    <i name="e_0_energy">   -191.59104870 </i>
   </energy>
  </scstep>
  <scstep>
   <time name="dav">   44.18   44.28</time>
   <time name="total">   44.81   44.93</time>
   <energy>
    <i name="e_fr_energy">   -191.74161908 </i>
    <i name="e_wo_entrp">   -191.55490989 </i>
    <i name="e_0_energy">   -191.64826448 </i>
   </energy>
  </scstep>
  <scstep>
   <time name="dav">   40.91   41.01</time>
   <time name="total">   41.55   41.65</time>
   <energy>
    <i name="e_fr_energy">   -191.69025514 </i>
    <i name="e_wo_entrp">   -191.52028962 </i>
    <i name="e_0_energy">   -191.60527238 </i>
   </energy>
  </scstep>
  <scstep>
   <time name="dav">   38.09   38.18</time>
   <time name="total">   38.72   38.82</time>
   <energy>
    <i name="e_fr_energy">   -191.69048939 </i>
    <i name="e_wo_entrp">   -191.51955108 </i>
    <i name="e_0_energy">   -191.60502023 </i>
   </energy>
  </scstep>
  <scstep>
   <time name="dav">   39.17   39.26</time>
   <time name="total">   39.80   39.91</time>
   <energy>
    <i name="e_fr_energy">   -191.68823078 </i>
    <i name="e_wo_entrp">   -191.51573094 </i>
    <i name="e_0_energy">   -191.60198086 </i>
   </energy>
  </scstep>
  <scstep>
   <time name="dav">   38.78   38.87</time>
   <time name="total">   39.42   39.52</time>
   <energy>
    <i name="e_fr_energy">   -191.68754436 </i>
    <i name="e_wo_entrp">   -191.51582148 </i>
    <i name="e_0_energy">   -191.60168292 </i>
   </energy>
  </scstep>
  <scstep>
   <time name="dav">   37.15   37.24</time>
   <time name="total">   37.79   37.89</time>
   <energy>
    <i name="e_fr_energy">   -191.68737622 </i>
    <i name="e_wo_entrp">   -191.51593268 </i>
    <i name="e_0_energy">   -191.60165445 </i>
   </energy>
  </scstep>
  <scstep>
   <time name="dav">   28.78   28.85</time>
   <time name="total">   28.83   28.91</time>
   <energy>
    <i name="alphaZ">     89.85389629 </i>
    <i name="ewald">  44513.36952272 </i>
    <i name="hartreedc"> -50523.02941016 </i>
    <i name="XCdc">   -233.45545198 </i>
    <i name="pawpsdc">   4086.01735806 </i>
    <i name="pawaedc">  -3501.95750165 </i>
    <i name="eentropy">     -0.17148911 </i>
    <i name="bandstr">  -1383.75683717 </i>
    <i name="atom">   6761.44252427 </i>
    <i name="e_fr_energy">   -191.68738872 </i>
    <i name="e_wo_entrp">   -191.51589961 </i>
    <i name="e_0_energy">   -191.60164417 </i>
   </energy>
  </scstep>
  <structure>
   <crystal>
    <varray name="basis" >
     <v>       8.31250893       4.77740918       0.00000000 </v>
     <v>      -8.31226653       4.77698816       0.00000000 </v>
     <v>       0.00000000       0.00000000      30.00000000 </v>
    </varray>
    <i name="volume">   2382.59565551 </i>
    <varray name="rec_basis" >
     <v>       0.06014854       0.10466232       0.00000000 </v>
     <v>      -0.06015384       0.10466538       0.00000000 </v>
     <v>       0.00000000       0.00000000       0.03333333 </v>
    </varray>
   </crystal>
   <varray name="positions" >
    <v>       1.00493236       0.32765839      -0.00039909 </v>
    <v>       0.67242242      -0.00477228      -0.00040131 </v>
    <v>       0.66282767       0.33722182       0.00054973 </v>
    <v>       0.00722467      -0.00720666       0.00005439 </v>
    <v>       0.33432141       0.33705113       0.00006798 </v>
    <v>       0.66282505       0.66539215       0.00006804 </v>
    <v>      -0.00514024       0.68266428       0.00001600 </v>
    <v>       0.31714826       0.00501864       0.00001580 </v>
    <v>       0.34480815       0.65484818      -0.00004427 </v>
    <v>       0.10748111       0.22410415       0.94839699 </v>
    <v>       0.22193341       0.11244091       0.05426297 </v>
    <v>       0.10860736       0.55221553       0.95121662 </v>
    <v>       0.21631582       0.44143625       0.05248625 </v>
    <v>       0.11113759       0.88867096       0.94446799 </v>
    <v>       0.22297095       0.77687513       0.05022180 </v>
    <v>       0.44963799       0.22435661       0.94831957 </v>
    <v>       0.55870469       0.11266016       0.04797261 </v>
    <v>       0.44526362       0.55459727       0.94572317 </v>
    <v>       0.55860408       0.44121303       0.05211180 </v>
    <v>       0.44756986       0.89119003       0.95124281 </v>
    <v>       0.55835953       0.78347221       0.05245239 </v>
    <v>       0.77777941       0.22214329       0.95245663 </v>
    <v>       0.88656456       0.11333180       0.04978378 </v>
    <v>       0.77551017       0.55020361       0.94830590 </v>
    <v>       0.88720617       0.44112248       0.04798135 </v>
    <v>       0.77577462       0.89235717       0.94841667 </v>
    <v>       0.88742375       0.77794822       0.05425331 </v>
   </varray>
  </structure>
  <varray name="forces" >
   <v>       0.37996026      -0.09827261      -0.04023674 </v>
   <v>       0.36974969       0.10566807      -0.04201129 </v>
   <v>      -0.17345066       0.00240538       0.07080893 </v>
   <v>       0.18491612       0.00132893       0.06186053 </v>
   <v>      -0.04559801       0.16846034      -0.01626711 </v>
   <v>      -0.03496488      -0.17429737      -0.01179579 </v>
   <v>      -0.56994401       0.11583368      -0.02629617 </v>
   <v>      -0.56524095      -0.11913398      -0.03254145 </v>
   <v>       0.63913406      -0.00709062       0.00737335 </v>
   <v>       0.08864231      -0.03756511      -0.04691904 </v>
   <v>      -0.13109354       0.04923010       0.18732752 </v>
   <v>      -0.09317647       0.11638538       0.34470858 </v>
   <v>       0.07835793       0.00347787       0.16796403 </v>
   <v>      -0.10668162       0.00111651      -0.32416101 </v>
   <v>       0.09177733      -0.00003360      -0.34748601 </v>
   <v>      -0.05196318      -0.02713647      -0.09752574 </v>
   <v>      -0.08622061      -0.15124735      -0.20970565 </v>
   <v>       0.14682200      -0.00045008      -0.27015362 </v>
   <v>      -0.04909082       0.00068799       0.12027800 </v>
   <v>      -0.09547480      -0.11865414       0.34394799 </v>
   <v>       0.07953960      -0.00713589       0.16647828 </v>
   <v>       0.02688329       0.00482628       0.06951496 </v>
   <v>       0.08986955       0.00459192       0.10675851 </v>
   <v>      -0.05363920       0.02658842      -0.09954236 </v>
   <v>      -0.08279269       0.15275436      -0.21330175 </v>
   <v>       0.09315099       0.03772445      -0.05041730 </v>
   <v>      -0.12947170      -0.05006242       0.18134032 </v>
  </varray>
  <varray name="stress" >
   <v>      -0.16042142      -0.00829406      -0.11747207 </v>
   <v>      -0.00829421      -0.29455666       0.00119377 </v>
   <v>      -0.11747226       0.00119375      -0.84237996 </v>
  </varray>
  <energy>
   <i name="e_fr_energy">   -191.68738872 </i>
   <i name="e_wo_entrp">   -191.60164417 </i>
   <i name="e_0_energy">     -0.17148911 </i>
  </energy>
  <time name="totalsc">  357.98  358.91</time>
 </calculation>
 <calculation>
  <scstep>
   <time name="dav">   29.11   29.18</time>
   <time name="total">   29.74   29.81</time>
   <energy>
    <i name="alphaZ">     90.07479168 </i>
    <i name="ewald">  44601.42296326 </i>
    <i name="hartreedc"> -50613.63875718 </i>
    <i name="XCdc">   -233.36811252 </i>
    <i name="pawpsdc">   4085.89061395 </i>
    <i name="pawaedc">  -3501.82918810 </i>
    <i name="eentropy">     -0.15978021 </i>
    <i name="bandstr">  -1381.66933736 </i>
    <i name="atom">   6761.44252427 </i>
    <i name="e_fr_energy">   -191.83428220 </i>
    <i name="e_wo_entrp">   -191.67450200 </i>
    <i name="e_0_energy">   -191.75439210 </i>
   </energy>
  </scstep>
  <scstep>
   <time name="dav">   40.26   40.36</time>
   <time name="total">   40.90   41.01</time>
   <energy>
    <i name="e_fr_energy">   -191.91912982 </i>
    <i name="e_wo_entrp">   -191.73954210 </i>
    <i name="e_0_energy">   -191.82933596 </i>
   </energy>
  </scstep>
  <scstep>
   <time name="dav">   41.62   41.72</time>
   <time name="total">   42.25   42.36</time>
   <energy>
    <i name="e_fr_energy">   -191.87744500 </i>
    <i name="e_wo_entrp">   -191.71889052 </i>
    <i name="e_0_energy">   -191.79816776 </i>
   </energy>
  </scstep>
  <scstep>
   <time name="dav">   38.86   38.95</time>
   <time name="total">   39.49   39.60</time>
   <energy>
    <i name="e_fr_energy">   -191.87177423 </i>
    <i name="e_wo_entrp">   -191.71068362 </i>
    <i name="e_0_energy">   -191.79122892 </i>
   </energy>
  </scstep>
  <scstep>
   <time name="dav">   41.23   41.33</time>
   <time name="total">   41.87   41.98</time>
   <energy>
    <i name="e_fr_energy">   -191.86614241 </i>
    <i name="e_wo_entrp">   -191.70213743 </i>
    <i name="e_0_energy">   -191.78413992 </i>
   </energy>
  </scstep>
  <scstep>
   <time name="dav">   41.24   41.34</time>
   <time name="total">   41.87   41.98</time>
   <energy>
    <i name="e_fr_energy">   -191.86416752 </i>
    <i name="e_wo_entrp">   -191.70062364 </i>
    <i name="e_0_energy">   -191.78239558 </i>
   </energy>
  </scstep>
  <scstep>
   <time name="dav">   37.27   37.36</time>
   <time name="total">   37.89   37.99</time>
   <energy>
    <i name="e_fr_energy">   -191.86363270 </i>
    <i name="e_wo_entrp">   -191.70048537 </i>
    <i name="e_0_energy">   -191.78205904 </i>
   </energy>
  </scstep>
  <scstep>
   <time name="dav">   36.60   36.68</time>
   <time name="total">   37.22   37.32</time>
   <energy>
    <i name="e_fr_energy">   -191.86351027 </i>
    <i name="e_wo_entrp">   -191.70041819 </i>
    <i name="e_0_energy">   -191.78196423 </i>
   </energy>
  </scstep>
  <scstep>
   <time name="dav">   28.88   28.95</time>
   <time name="total">   29.52   29.60</time>
   <energy>
    <i name="e_fr_energy">   -191.86335608 </i>
    <i name="e_wo_entrp">   -191.70025451 </i>
    <i name="e_0_energy">   -191.78180529 </i>
   </energy>
  </scstep>
  <scstep>
   <time name="dav">   25.37   25.43</time>
   <time name="total">   25.42   25.49</time>
   <energy>
    <i name="alphaZ">     90.07479168 </i>
    <i name="ewald">  44601.42296326 </i>
    <i name="hartreedc"> -50612.79078920 </i>
    <i name="XCdc">   -233.39898676 </i>
    <i name="pawpsdc">   4090.57417455 </i>
    <i name="pawaedc">  -3506.55488200 </i>
    <i name="eentropy">     -0.16307874 </i>
    <i name="bandstr">  -1382.47006344 </i>
    <i name="atom">   6761.44252427 </i>
    <i name="e_fr_energy">   -191.86334638 </i>
    <i name="e_wo_entrp">   -191.70026764 </i>
[...]
      <set comment="kpoint 31">
       <r>  -17.5285    1.0000 </r>
       <r>  -17.2896    1.0000 </r>
       <r>  -16.9307    1.0000 </r>
       <r>  -16.6165    1.0000 </r>
       <r>  -16.5482    1.0000 </r>
       <r>  -16.4811    1.0000 </r>
       <r>  -16.2993    1.0000 </r>
       <r>  -16.1798    1.0000 </r>
       <r>  -16.1133    1.0000 </r>
       <r>  -16.0968    1.0000 </r>
       <r>  -15.9241    1.0000 </r>
       <r>  -15.8536    1.0000 </r>
       <r>  -15.7601    1.0000 </r>
       <r>  -15.6984    1.0000 </r>
       <r>  -15.6434    1.0000 </r>
       <r>  -15.4369    1.0000 </r>
       <r>  -15.3305    1.0000 </r>
       <r>  -15.1908    1.0000 </r>
       <r>   -9.7853    1.0000 </r>
       <r>   -9.4847    1.0000 </r>
       <r>   -9.3603    1.0000 </r>
       <r>   -8.9382    1.0000 </r>
       <r>   -8.8437    1.0000 </r>
       <r>   -8.7472    1.0000 </r>
       <r>   -8.6490    1.0000 </r>
       <r>   -8.6128    1.0000 </r>
       <r>   -8.4360    1.0000 </r>
       <r>   -8.3108    1.0000 </r>
       <r>   -8.2566    1.0000 </r>
       <r>   -8.1502    1.0000 </r>
       <r>   -8.0885    1.0000 </r>
       <r>   -8.0753    1.0000 </r>
       <r>   -7.9539    1.0000 </r>
       <r>   -7.9102    1.0000 </r>
       <r>   -7.7738    1.0000 </r>
       <r>   -7.6807    1.0000 </r>
       <r>   -7.6309    1.0000 </r>
       <r>   -7.5793    1.0000 </r>
       <r>   -7.3883    1.0000 </r>
       <r>   -7.3170    1.0000 </r>
       <r>   -7.1644    1.0000 </r>
       <r>   -7.0265    1.0000 </r>
       <r>   -6.9648    1.0000 </r>
       <r>   -6.9110    1.0000 </r>
       <r>   -6.8772    1.0000 </r>
       <r>   -6.8037    1.0000 </r>
       <r>   -6.7012    1.0000 </r>
       <r>   -6.5617    1.0000 </r>
       <r>   -6.5203    1.0000 </r>
       <r>   -6.4250    1.0000 </r>
       <r>   -6.3643    1.0000 </r>
       <r>   -6.2792    1.0000 </r>
       <r>   -6.2242    1.0000 </r>
       <r>   -6.1764    1.0000 </r>
       <r>   -6.1010    1.0000 </r>
       <r>   -6.0188    1.0000 </r>
       <r>   -5.9823    1.0000 </r>
       <r>   -5.9257    1.0000 </r>
       <r>   -5.9022    1.0000 </r>
       <r>   -5.7008    1.0000 </r>
       <r>   -5.6448    1.0000 </r>
       <r>   -5.5543    1.0000 </r>
       <r>   -5.5217    1.0000 </r>
       <r>   -5.3935    1.0000 </r>
       <r>   -5.2802    1.0000 </r>
       <r>   -5.2361    1.0000 </r>
       <r>   -4.9446    1.0000 </r>
       <r>   -4.8692    1.0000 </r>
       <r>   -4.8248    1.0000 </r>
       <r>   -4.7456    1.0000 </r>
       <r>   -4.5360    1.0000 </r>
       <r>   -4.4257    1.0000 </r>
       <r>   -4.3391    1.0000 </r>
       <r>   -4.1680    1.0000 </r>
       <r>   -4.0846    1.0000 </r>
       <r>   -4.0347    1.0000 </r>
       <r>   -3.8469    1.0000 </r>
       <r>   -3.7011    0.9993 </r>
       <r>   -3.5222    0.9742 </r>
       <r>   -3.1950    0.3566 </r>
       <r>   -3.0573    0.0899 </r>
       <r>   -2.8466    0.0023 </r>
       <r>   -2.7055    0.0001 </r>
       <r>   -2.5653    0.0000 </r>
       <r>   -2.4622    0.0000 </r>
       <r>   -2.3369    0.0000 </r>
       <r>   -2.1614    0.0000 </r>
       <r>   -2.0600    0.0000 </r>
       <r>   -1.9352    0.0000 </r>
       <r>   -1.8421    0.0000 </r>
       <r>   -1.6789    0.0000 </r>
       <r>   -1.6068    0.0000 </r>
       <r>   -1.4127    0.0000 </r>
       <r>   -1.3703    0.0000 </r>
       <r>   -1.2186    0.0000 </r>
       <r>   -1.1097    0.0000 </r>
       <r>   -1.0469    0.0000 </r>
       <r>   -0.9936    0.0000 </r>
       <r>   -0.9380    0.0000 </r>
       <r>   -0.8747    0.0000 </r>
       <r>   -0.8333    0.0000 </r>
       <r>   -0.7259    0.0000 </r>
       <r>   -0.6715    0.0000 </r>
       <r>   -0.5495    0.0000 </r>
       <r>   -0.4514    0.0000 </r>
       <r>   -0.3610    0.0000 </r>
       <r>   -0.2804    0.0000 </r>
       <r>   -0.1118    0.0000 </r>
       <r>    0.0398    0.0000 </r>
       <r>    0.1574    0.0000 </r>
       <r>    0.3645    0.0000 </r>
       <r>    0.5898    0.0000 </r>
       <r>    0.7527    0.0000 </r>
       <r>    0.9987    0.0000 </r>
       <r>    1.1360    0.0000 </r>
       <r>    1.2821    0.0000 </r>
       <r>    1.5084    0.0000 </r>
       <r>    2.1583    0.0000 </r>
       <r>    2.3185    0.0000 </r>
       <r>    2.4253    0.0000 </r>
      </set>
      <set comment="kpoint 32">
       <r>  -17.5440    1.0000 </r>
       <r>  -17.2173    1.0000 </r>
       <r>  -17.0444    1.0000 </r>
       <r>  -16.6388    1.0000 </r>
       <r>  -16.5015    1.0000 </r>
       <r>  -16.3563    1.0000 </r>
       <r>  -16.2838    1.0000 </r>
       <r>  -16.2003    1.0000 </r>
       <r>  -16.1666    1.0000 </r>
       <r>  -16.0645    1.0000 </r>
       <r>  -15.9935    1.0000 </r>
       <r>  -15.8483    1.0000 </r>
       <r>  -15.7751    1.0000 </r>
       <r>  -15.7066    1.0000 </r>
       <r>  -15.6395    1.0000 </r>
       <r>  -15.4674    1.0000 </r>
       <r>  -15.3099    1.0000 </r>
       <r>  -15.1646    1.0000 </r>
       <r>   -9.7688    1.0000 </r>
       <r>   -9.5641    1.0000 </r>
       <r>   -9.4027    1.0000 </r>
       <r>   -8.9639    1.0000 </r>
       <r>   -8.7623    1.0000 </r>
       <r>   -8.6513    1.0000 </r>
       <r>   -8.5115    1.0000 </r>
       <r>   -8.4865    1.0000 </r>
       <r>   -8.4576    1.0000 </r>
       <r>   -8.3660    1.0000 </r>
       <r>   -8.2628    1.0000 </r>
       <r>   -8.2075    1.0000 </r>
       <r>   -8.1811    1.0000 </r>
       <r>   -8.0914    1.0000 </r>
       <r>   -8.0173    1.0000 </r>
       <r>   -7.9425    1.0000 </r>
       <r>   -7.8097    1.0000 </r>
       <r>   -7.7214    1.0000 </r>
       <r>   -7.5773    1.0000 </r>
       <r>   -7.4887    1.0000 </r>
       <r>   -7.3777    1.0000 </r>
       <r>   -7.2298    1.0000 </r>
       <r>   -7.1844    1.0000 </r>
       <r>   -7.1338    1.0000 </r>
       <r>   -7.0680    1.0000 </r>
       <r>   -6.9152    1.0000 </r>
       <r>   -6.8449    1.0000 </r>
       <r>   -6.8030    1.0000 </r>
       <r>   -6.6492    1.0000 </r>
       <r>   -6.5430    1.0000 </r>
       <r>   -6.4728    1.0000 </r>
       <r>   -6.4075    1.0000 </r>
       <r>   -6.3690    1.0000 </r>
       <r>   -6.3069    1.0000 </r>
       <r>   -6.2680    1.0000 </r>
       <r>   -6.1677    1.0000 </r>
       <r>   -6.1213    1.0000 </r>
       <r>   -6.0827    1.0000 </r>
       <r>   -5.9727    1.0000 </r>
       <r>   -5.8679    1.0000 </r>
       <r>   -5.7962    1.0000 </r>
       <r>   -5.7367    1.0000 </r>
       <r>   -5.6188    1.0000 </r>
       <r>   -5.5648    1.0000 </r>
       <r>   -5.5114    1.0000 </r>
       <r>   -5.4007    1.0000 </r>
       <r>   -5.3748    1.0000 </r>
       <r>   -5.1853    1.0000 </r>
       <r>   -5.1540    1.0000 </r>
       <r>   -4.8657    1.0000 </r>
       <r>   -4.7601    1.0000 </r>
       <r>   -4.6444    1.0000 </r>
       <r>   -4.5018    1.0000 </r>
       <r>   -4.4127    1.0000 </r>
       <r>   -4.3339    1.0000 </r>
       <r>   -4.2083    1.0000 </r>
       <r>   -4.1616    1.0000 </r>
       <r>   -4.0718    1.0000 </r>
       <r>   -3.9441    1.0000 </r>
       <r>   -3.6596    0.9982 </r>
       <r>   -3.5322    0.9781 </r>
       <r>   -3.1032    0.1547 </r>
       <r>   -2.9507    0.0181 </r>
       <r>   -2.8053    0.0009 </r>
       <r>   -2.7318    0.0001 </r>
       <r>   -2.5110    0.0000 </r>
       <r>   -2.4458    0.0000 </r>
       <r>   -2.3472    0.0000 </r>
       <r>   -2.1013    0.0000 </r>
       <r>   -1.9747    0.0000 </r>
       <r>   -1.9374    0.0000 </r>
       <r>   -1.8408    0.0000 </r>
       <r>   -1.7688    0.0000 </r>
       <r>   -1.6303    0.0000 </r>
       <r>   -1.4677    0.0000 </r>
       <r>   -1.4021    0.0000 </r>
       <r>   -1.2812    0.0000 </r>
       <r>   -1.1290    0.0000 </r>
       <r>   -1.0483    0.0000 </r>
       <r>   -0.9983    0.0000 </r>
       <r>   -0.9557    0.0000 </r>
       <r>   -0.9054    0.0000 </r>
       <r>   -0.8017    0.0000 </r>
       <r>   -0.7354    0.0000 </r>
       <r>   -0.6591    0.0000 </r>
       <r>   -0.5649    0.0000 </r>
       <r>   -0.4129    0.0000 </r>
       <r>   -0.3193    0.0000 </r>
       <r>   -0.1590    0.0000 </r>
       <r>   -0.1183    0.0000 </r>
       <r>    0.0686    0.0000 </r>
       <r>    0.1773    0.0000 </r>
       <r>    0.4760    0.0000 </r>
       <r>    0.5939    0.0000 </r>
       <r>    0.7404    0.0000 </r>
       <r>    0.9283    0.0000 </r>
       <r>    1.0908    0.0000 </r>
       <r>    1.2009    0.0000 </r>
       <r>    1.3705    0.0000 </r>
       <r>    2.1191    0.0000 </r>
       <r>    2.2920    0.0000 </r>
       <r>    2.5956    0.0000 </r>
      </set>
      <set comment="kpoint 33">
       <r>  -17.5246    1.0000 </r>
       <r>  -17.3111    1.0000 </r>
       <r>  -16.9158    1.0000 </r>
       <r>  -16.6575    1.0000 </r>
       <r>  -16.5214    1.0000 </r>
       <r>  -16.4021    1.0000 </r>
       <r>  -16.2880    1.0000 </r>
       <r>  -16.2183    1.0000 </r>
       <r>  -16.1371    1.0000 </r>
       <r>  -16.0659    1.0000 </r>
       <r>  -15.9288    1.0000 </r>
       <r>  -15.8321    1.0000 </r>
       <r>  -15.7978    1.0000 </r>
       <r>  -15.7173    1.0000 </r>
       <r>  -15.6463    1.0000 </r>
       <r>  -15.5170    1.0000 </r>
       <r>  -15.2865    1.0000 </r>
       <r>  -15.1560    1.0000 </r>
       <r>   -9.8435    1.0000 </r>
       <r>   -9.4654    1.0000 </r>
       <r>   -9.3095    1.0000 </r>
       <r>   -9.0117    1.0000 </r>
       <r>   -8.8900    1.0000 </r>
       <r>   -8.7263    1.0000 </r>
       <r>   -8.5291    1.0000 </r>
       <r>   -8.4824    1.0000 </r>
       <r>   -8.4056    1.0000 </r>
       <r>   -8.3307    1.0000 </r>
       <r>   -8.2454    1.0000 </r>
       <r>   -8.2242    1.0000 </r>
       <r>   -8.1725    1.0000 </r>
       <r>   -8.0997    1.0000 </r>
       <r>   -8.0219    1.0000 </r>
       <r>   -7.8790    1.0000 </r>
       <r>   -7.7732    1.0000 </r>
       <r>   -7.6992    1.0000 </r>
       <r>   -7.5983    1.0000 </r>
       <r>   -7.4328    1.0000 </r>
       <r>   -7.3530    1.0000 </r>
       <r>   -7.2288    1.0000 </r>
       <r>   -7.1599    1.0000 </r>
       <r>   -7.1345    1.0000 </r>
       <r>   -7.0844    1.0000 </r>
       <r>   -6.8948    1.0000 </r>
       <r>   -6.8314    1.0000 </r>
       <r>   -6.7735    1.0000 </r>
       <r>   -6.6546    1.0000 </r>
       <r>   -6.6074    1.0000 </r>
       <r>   -6.4961    1.0000 </r>
       <r>   -6.4358    1.0000 </r>
       <r>   -6.3320    1.0000 </r>
       <r>   -6.3269    1.0000 </r>
       <r>   -6.2657    1.0000 </r>
       <r>   -6.1722    1.0000 </r>
       <r>   -6.1250    1.0000 </r>
       <r>   -6.0860    1.0000 </r>
       <r>   -6.0510    1.0000 </r>
       <r>   -5.9561    1.0000 </r>
       <r>   -5.8572    1.0000 </r>
       <r>   -5.7825    1.0000 </r>
       <r>   -5.6440    1.0000 </r>
       <r>   -5.5917    1.0000 </r>
       <r>   -5.4956    1.0000 </r>
       <r>   -5.4128    1.0000 </r>
       <r>   -5.3085    1.0000 </r>
       <r>   -5.1837    1.0000 </r>
       <r>   -5.0503    1.0000 </r>
       <r>   -4.8176    1.0000 </r>
       <r>   -4.7783    1.0000 </r>
       <r>   -4.5579    1.0000 </r>
       <r>   -4.4785    1.0000 </r>
       <r>   -4.4251    1.0000 </r>
       <r>   -4.3203    1.0000 </r>
       <r>   -4.2510    1.0000 </r>
       <r>   -4.2034    1.0000 </r>
       <r>   -4.0676    1.0000 </r>
       <r>   -4.0322    1.0000 </r>
       <r>   -3.6786    0.9989 </r>
       <r>   -3.5485    0.9835 </r>
       <r>   -3.0591    0.0920 </r>
       <r>   -2.9312    0.0128 </r>
       <r>   -2.7538    0.0002 </r>
       <r>   -2.6601    0.0000 </r>
       <r>   -2.5079    0.0000 </r>
       <r>   -2.3798    0.0000 </r>
       <r>   -2.3377    0.0000 </r>
       <r>   -2.0507    0.0000 </r>
       <r>   -1.9679    0.0000 </r>
       <r>   -1.9302    0.0000 </r>
       <r>   -1.8617    0.0000 </r>
       <r>   -1.7228    0.0000 </r>
       <r>   -1.6288    0.0000 </r>
       <r>   -1.5324    0.0000 </r>
       <r>   -1.4547    0.0000 </r>
       <r>   -1.3509    0.0000 </r>
       <r>   -1.1541    0.0000 </r>
       <r>   -1.0718    0.0000 </r>
       <r>   -1.0039    0.0000 </r>
       <r>   -0.9542    0.0000 </r>
       <r>   -0.9222    0.0000 </r>
       <r>   -0.8069    0.0000 </r>
       <r>   -0.7483    0.0000 </r>
       <r>   -0.6636    0.0000 </r>
       <r>   -0.6018    0.0000 </r>
       <r>   -0.3433    0.0000 </r>
       <r>   -0.2649    0.0000 </r>
       <r>   -0.2267    0.0000 </r>
       <r>    0.0001    0.0000 </r>
       <r>    0.0657    0.0000 </r>
       <r>    0.2686    0.0000 </r>
       <r>    0.4613    0.0000 </r>
       <r>    0.6793    0.0000 </r>
       <r>    0.7797    0.0000 </r>
       <r>    0.8987    0.0000 </r>
       <r>    1.0177    0.0000 </r>
       <r>    1.1627    0.0000 </r>
       <r>    1.2480    0.0000 </r>
       <r>    2.1409    0.0000 </r>
       <r>    2.3286    0.0000 </r>
       <r>    2.3835    0.0000 </r>
      </set>
      <set comment="kpoint 34">
       <r>  -17.4948    1.0000 </r>
       <r>  -17.3794    1.0000 </r>
       <r>  -16.7379    1.0000 </r>
       <r>  -16.7266    1.0000 </r>
       <r>  -16.6082    1.0000 </r>
       <r>  -16.4228    1.0000 </r>
       <r>  -16.2753    1.0000 </r>
       <r>  -16.2433    1.0000 </r>
       <r>  -16.1233    1.0000 </r>
       <r>  -16.0525    1.0000 </r>
       <r>  -15.8813    1.0000 </r>
       <r>  -15.8265    1.0000 </r>
       <r>  -15.7831    1.0000 </r>
       <r>  -15.7058    1.0000 </r>
       <r>  -15.6893    1.0000 </r>
       <r>  -15.5417    1.0000 </r>
       <r>  -15.2752    1.0000 </r>
       <r>  -15.1577    1.0000 </r>
       <r>   -9.8786    1.0000 </r>
       <r>   -9.3290    1.0000 </r>
       <r>   -9.2858    1.0000 </r>
       <r>   -9.0271    1.0000 </r>
       <r>   -8.9438    1.0000 </r>
       <r>   -8.8855    1.0000 </r>
       <r>   -8.5352    1.0000 </r>
       <r>   -8.4664    1.0000 </r>
       <r>   -8.4261    1.0000 </r>
       <r>   -8.3273    1.0000 </r>
       <r>   -8.2525    1.0000 </r>
       <r>   -8.2326    1.0000 </r>
       <r>   -8.1177    1.0000 </r>
       <r>   -8.0930    1.0000 </r>
       <r>   -7.9528    1.0000 </r>
       <r>   -7.8892    1.0000 </r>
       <r>   -7.8110    1.0000 </r>
       <r>   -7.7131    1.0000 </r>
       <r>   -7.4853    1.0000 </r>
       <r>   -7.3627    1.0000 </r>
       <r>   -7.3293    1.0000 </r>
       <r>   -7.2336    1.0000 </r>
       <r>   -7.1283    1.0000 </r>
       <r>   -7.1232    1.0000 </r>
       <r>   -7.0638    1.0000 </r>
       <r>   -7.0529    1.0000 </r>
       <r>   -6.8014    1.0000 </r>
       <r>   -6.7515    1.0000 </r>
       <r>   -6.6610    1.0000 </r>
       <r>   -6.5653    1.0000 </r>
       <r>   -6.5589    1.0000 </r>
       <r>   -6.4496    1.0000 </r>
       <r>   -6.3248    1.0000 </r>
       <r>   -6.3103    1.0000 </r>
       <r>   -6.2459    1.0000 </r>
       <r>   -6.2370    1.0000 </r>
       <r>   -6.1609    1.0000 </r>
       <r>   -6.1420    1.0000 </r>
       <r>   -6.0894    1.0000 </r>
       <r>   -5.9014    1.0000 </r>
       <r>   -5.8802    1.0000 </r>
       <r>   -5.7978    1.0000 </r>
       <r>   -5.7001    1.0000 </r>
       <r>   -5.5668    1.0000 </r>
       <r>   -5.5372    1.0000 </r>
       <r>   -5.4077    1.0000 </r>
       <r>   -5.2663    1.0000 </r>
       <r>   -5.2338    1.0000 </r>
       <r>   -4.9071    1.0000 </r>
       <r>   -4.7949    1.0000 </r>
       <r>   -4.7191    1.0000 </r>
       <r>   -4.6384    1.0000 </r>
       <r>   -4.4708    1.0000 </r>
       <r>   -4.3534    1.0000 </r>
       <r>   -4.3381    1.0000 </r>
       <r>   -4.3230    1.0000 </r>
       <r>   -4.2083    1.0000 </r>
       <r>   -4.0758    1.0000 </r>
       <r>   -3.9996    1.0000 </r>
       <r>   -3.7135    0.9995 </r>
       <r>   -3.5613    0.9869 </r>
       <r>   -3.0581    0.0909 </r>
       <r>   -2.9639    0.0227 </r>
       <r>   -2.6725    0.0000 </r>
       <r>   -2.6406    0.0000 </r>
       <r>   -2.5062    0.0000 </r>
       <r>   -2.3900    0.0000 </r>
       <r>   -2.2655    0.0000 </r>
       <r>   -2.0797    0.0000 </r>
       <r>   -1.9995    0.0000 </r>
       <r>   -1.9309    0.0000 </r>
       <r>   -1.8155    0.0000 </r>
       <r>   -1.6560    0.0000 </r>
       <r>   -1.6325    0.0000 </r>
       <r>   -1.5771    0.0000 </r>
       <r>   -1.4813    0.0000 </r>
       <r>   -1.3890    0.0000 </r>
       <r>   -1.1784    0.0000 </r>
       <r>   -1.0574    0.0000 </r>
       <r>   -1.0066    0.0000 </r>
       <r>   -0.9693    0.0000 </r>
       <r>   -0.9008    0.0000 </r>
       <r>   -0.8520    0.0000 </r>
       <r>   -0.7444    0.0000 </r>
       <r>   -0.6663    0.0000 </r>
       <r>   -0.6174    0.0000 </r>
       <r>   -0.3373    0.0000 </r>
       <r>   -0.2420    0.0000 </r>
       <r>   -0.2239    0.0000 </r>
       <r>    0.0324    0.0000 </r>
       <r>    0.0478    0.0000 </r>
       <r>    0.3476    0.0000 </r>
       <r>    0.4090    0.0000 </r>
       <r>    0.7412    0.0000 </r>
       <r>    0.8217    0.0000 </r>
       <r>    0.8750    0.0000 </r>
       <r>    0.9780    0.0000 </r>
       <r>    1.1649    0.0000 </r>
       <r>    1.2007    0.0000 </r>
       <r>    2.2004    0.0000 </r>
       <r>    2.2548    0.0000 </r>
       <r>    2.3766    0.0000 </r>
      </set>
     </set>
    </set>
   </array>
  </eigenvalues>
  <separator name="orbital magnetization" >
   <v name="MAGDIPOLOUT">      0.00000000      0.00000000      0.00000000</v>
  </separator>
 </calculation>
 <structure name="finalpos" >
  <crystal>
   <varray name="basis" >
    <v>       8.32959151       4.78651633       0.00000000 </v>
    <v>      -8.32818698       4.78406726       0.00000000 </v>
    <v>       0.00000000       0.00000000      30.00000000 </v>
   </varray>
   <i name="volume">   2391.36986901 </i>
   <varray name="rec_basis" >
    <v>       0.06001665       0.10447803       0.00000000 </v>
    <v>      -0.06004738       0.10449565       0.00000000 </v>
    <v>       0.00000000       0.00000000       0.03333333 </v>
   </varray>
  </crystal>
  <varray name="positions" >
   <v>       1.01811384       0.31672401       0.00201963 </v>
   <v>       0.68329850      -0.01819798       0.00198562 </v>
   <v>       0.65015915       0.34964593      -0.00186424 </v>
   <v>       0.00589017      -0.00322207       0.00033476 </v>
   <v>       0.33793508       0.33817001       0.00018367 </v>
   <v>       0.66028438       0.66051004       0.00018525 </v>
   <v>      -0.01769917       0.68827160      -0.00245509 </v>
   <v>       0.31185587       0.01754263      -0.00242211 </v>
   <v>       0.35312665       0.64646594       0.00213437 </v>
   <v>       0.11001072       0.22361615       0.94739656 </v>
   <v>       0.22090083       0.11462030       0.05501973 </v>
   <v>       0.11007724       0.55374403       0.95639019 </v>
   <v>       0.22054646       0.43979131       0.05571635 </v>
   <v>       0.10723275       0.89295752       0.94185423 </v>
   <v>       0.22253080       0.77722723       0.04429016 </v>
   <v>       0.44782609       0.22673238       0.94467471 </v>
   <v>       0.55667953       0.11236041       0.04264385 </v>
   <v>       0.44672972       0.55283591       0.94451643 </v>
   <v>       0.55766376       0.44197372       0.05407090 </v>
   <v>       0.44610331       0.88967582       0.95641967 </v>
   <v>       0.55994504       0.77909970       0.05568942 </v>
   <v>       0.77843760       0.22145690       0.95824125 </v>
   <v>       0.88842137       0.11166272       0.05331783 </v>
   <v>       0.77300800       0.55210115       0.94468186 </v>
   <v>       0.88751851       0.44332189       0.04259601 </v>
   <v>       0.77644984       0.88971576       0.94760919 </v>
   <v>       0.88516841       0.77941144       0.05476968 </v>
  </varray>
 </structure>
</modeling>
