<?xml version="1.0" encoding="ISO-8859-1"?>
<modeling>
 <generator>
  <i name="program" type="string">vasp </i>
  <i name="version" type="string">5.4.1  </i>
  <i name="subversion" type="string">05Feb16 (build Jul 05 2020 17:13:04) complex                          parallel </i>
  <i name="platform" type="string">IFC91_ompi </i>
  <i name="date" type="string">2024 07 26 </i>
  <i name="time" type="string">12:01:55 </i>
 </generator>
 <incar>
  <i type="int" name="ISTART">     0</i>
  <i type="string" name="PREC">normal</i>
  <i type="string" name="ALGO"> Normal</i>
  <i type="int" name="ISPIN">     1</i>
  <i type="int" name="ICHARG">     2</i>
  <i type="int" name="IBRION">     1</i>
  <i type="int" name="NSW">   100</i>
  <i type="int" name="ISIF">     3</i>
  <i type="int" name="ISYM">     0</i>
  <i name="SYMPREC">      0.00000001</i>
  <i name="POTIM">      0.50000000</i>
  <i type="logical" name="LREAL"> F  </i>
  <i type="logical" name="LPLANE"> F  </i>
  <i type="int" name="ISMEAR">     0</i>
  <i type="logical" name="LWAVE"> F  </i>
  <i type="logical" name="LCHARG"> F  </i>
  <v type="int" name="KPOINT_BSE">    -1     0     0     0</v>
 </incar>
 <kpoints>
  <generation param="Gamma">
   <v type="int" name="divisions">       8        8        1 </v>
   <v name="usershift">      0.00000000       0.00000000       0.00000000 </v>
   <v name="genvec1">      0.12500000       0.00000000       0.00000000 </v>
   <v name="genvec2">     -0.00000000       0.12500000       0.00000000 </v>
   <v name="genvec3">      0.00000000       0.00000000       1.00000000 </v>
   <v name="shift">      0.00000000       0.00000000       0.00000000 </v>
  </generation>
  <varray name="kpointlist" >
   <v>       0.00000000       0.00000000       0.00000000 </v>
   <v>       0.12500000       0.00000000       0.00000000 </v>
   <v>       0.25000000       0.00000000       0.00000000 </v>
   <v>       0.37500000       0.00000000       0.00000000 </v>
   <v>       0.50000000       0.00000000       0.00000000 </v>
   <v>       0.00000000       0.12500000       0.00000000 </v>
   <v>       0.12500000       0.12500000       0.00000000 </v>
   <v>       0.25000000       0.12500000       0.00000000 </v>
   <v>       0.37500000       0.12500000       0.00000000 </v>
   <v>       0.50000000       0.12500000       0.00000000 </v>
   <v>      -0.37500000       0.12500000       0.00000000 </v>
   <v>      -0.25000000       0.12500000       0.00000000 </v>
   <v>      -0.12500000       0.12500000       0.00000000 </v>
   <v>       0.00000000       0.25000000       0.00000000 </v>
   <v>       0.12500000       0.25000000       0.00000000 </v>
   <v>       0.25000000       0.25000000       0.00000000 </v>
   <v>       0.37500000       0.25000000       0.00000000 </v>
   <v>       0.50000000       0.25000000       0.00000000 </v>
   <v>      -0.37500000       0.25000000       0.00000000 </v>
   <v>      -0.25000000       0.25000000       0.00000000 </v>
   <v>      -0.12500000       0.25000000       0.00000000 </v>
   <v>      -0.00000000       0.37500000       0.00000000 </v>
   <v>       0.12500000       0.37500000       0.00000000 </v>
   <v>       0.25000000       0.37500000       0.00000000 </v>
   <v>       0.37500000       0.37500000       0.00000000 </v>
   <v>       0.50000000       0.37500000       0.00000000 </v>
   <v>      -0.37500000       0.37500000       0.00000000 </v>
   <v>      -0.25000000       0.37500000       0.00000000 </v>
   <v>      -0.12500000       0.37500000       0.00000000 </v>
   <v>       0.00000000       0.50000000       0.00000000 </v>
   <v>       0.12500000       0.50000000       0.00000000 </v>
   <v>       0.25000000       0.50000000       0.00000000 </v>
   <v>       0.37500000       0.50000000       0.00000000 </v>
   <v>       0.50000000       0.50000000       0.00000000 </v>
  </varray>
  <varray name="weights" >
   <v>       0.01562500 </v>
   <v>       0.03125000 </v>
   <v>       0.03125000 </v>
   <v>       0.03125000 </v>
   <v>       0.01562500 </v>
   <v>       0.03125000 </v>
   <v>       0.03125000 </v>
   <v>       0.03125000 </v>
   <v>       0.03125000 </v>
   <v>       0.03125000 </v>
   <v>       0.03125000 </v>
   <v>       0.03125000 </v>
   <v>       0.03125000 </v>
   <v>       0.03125000 </v>
   <v>       0.03125000 </v>
   <v>       0.03125000 </v>
   <v>       0.03125000 </v>
   <v>       0.03125000 </v>
   <v>       0.03125000 </v>
   <v>       0.03125000 </v>
   <v>       0.03125000 </v>
   <v>       0.03125000 </v>
   <v>       0.03125000 </v>
   <v>       0.03125000 </v>
   <v>       0.03125000 </v>
   <v>       0.03125000 </v>
   <v>       0.03125000 </v>
   <v>       0.03125000 </v>
   <v>       0.03125000 </v>
   <v>       0.01562500 </v>
   <v>       0.03125000 </v>
   <v>       0.03125000 </v>
   <v>       0.03125000 </v>
   <v>       0.01562500 </v>
  </varray>
 </kpoints>
 <parameters>
  <separator name="general" >
   <i type="string" name="SYSTEM">unknown system</i>
   <i type="logical" name="LCOMPAT"> F  </i>
  </separator>
  <separator name="electronic" >
   <i type="string" name="PREC">normal</i>
   <i name="ENMAX">    280.00000000</i>
   <i name="ENAUG">    373.43800000</i>
   <i name="EDIFF">      0.00010000</i>
   <i type="int" name="IALGO">    38</i>
   <i type="int" name="IWAVPR">    11</i>
   <i type="int" name="NBANDS">   120</i>
   <i name="NELECT">    159.00000000</i>
   <i type="int" name="TURBO">     0</i>
   <i type="int" name="IRESTART">     0</i>
   <i type="int" name="NREBOOT">     0</i>
   <i type="int" name="NMIN">     0</i>
   <i name="EREF">      0.00000000</i>
   <separator name="electronic smearing" >
    <i type="int" name="ISMEAR">     0</i>
    <i name="SIGMA">      0.20000000</i>
    <i name="KSPACING">      0.50000000</i>
    <i type="logical" name="KGAMMA"> T  </i>
   </separator>
   <separator name="electronic projectors" >
    <i type="logical" name="LREAL"> F  </i>
    <v name="ROPT">      0.00000000      0.00000000      0.00000000      0.00000000</v>
    <i type="int" name="LMAXPAW">  -100</i>
    <i type="int" name="LMAXMIX">     2</i>
    <i type="logical" name="NLSPLINE"> F  </i>
   </separator>
   <separator name="electronic startup" >
    <i type="int" name="ISTART">     0</i>
    <i type="int" name="ICHARG">     2</i>
    <i type="int" name="INIWAV">     1</i>
   </separator>
   <separator name="electronic spin" >
    <i type="int" name="ISPIN">     1</i>
    <i type="logical" name="LNONCOLLINEAR"> F  </i>
    <v name="MAGMOM">      1.00000000      1.00000000      1.00000000      1.00000000      1.00000000      1.00000000      1.00000000      1.00000000      1.00000000      1.00000000      1.00000000      1.00000000      1.00000000      1.00000000      1.00000000      1.00000000      1.00000000      1.00000000      1.00000000      1.00000000
      1.00000000      1.00000000      1.00000000      1.00000000      1.00000000      1.00000000      1.00000000</v>
    <i name="NUPDOWN">     -1.00000000</i>
    <i type="logical" name="LSORBIT"> F  </i>
    <v name="SAXIS">      0.00000000      0.00000000      1.00000000</v>
    <i type="logical" name="LSPIRAL"> F  </i>
    <v name="QSPIRAL">      0.00000000      0.00000000      0.00000000</v>
    <i type="logical" name="LZEROZ"> F  </i>
   </separator>
   <separator name="electronic exchange-correlation" >
    <i type="logical" name="LASPH"> F  </i>
    <i type="logical" name="LMETAGGA"> F  </i>
   </separator>
   <separator name="electronic convergence" >
    <i type="int" name="NELM">    60</i>
    <i type="int" name="NELMDL">    -5</i>
    <i type="int" name="NELMIN">     2</i>
    <i name="ENINI">    280.00000000</i>
    <separator name="electronic convergence detail" >
     <i type="logical" name="LDIAG"> T  </i>
     <i type="logical" name="LSUBROT"> F  </i>
     <i name="WEIMIN">      0.00100000</i>
     <i name="EBREAK">      0.00000021</i>
     <i name="DEPER">      0.30000000</i>
     <i type="int" name="NRMM">     4</i>
     <i name="TIME">      0.40000000</i>
    </separator>
   </separator>
   <separator name="electronic mixer" >
    <i name="AMIX">      0.40000000</i>
    <i name="BMIX">      1.00000000</i>
    <i name="AMIN">      0.10000000</i>
    <i name="AMIX_MAG">      1.60000000</i>
    <i name="BMIX_MAG">      1.00000000</i>
    <separator name="electronic mixer details" >
     <i type="int" name="IMIX">     4</i>
     <i type="logical" name="MIXFIRST"> F  </i>
     <i type="int" name="MAXMIX">   -45</i>
     <i name="WC">    100.00000000</i>
     <i type="int" name="INIMIX">     1</i>
     <i type="int" name="MIXPRE">     1</i>
     <i type="int" name="MREMOVE">     5</i>
    </separator>
   </separator>
   <separator name="electronic dipolcorrection" >
    <i type="logical" name="LDIPOL"> F  </i>
    <i type="logical" name="LMONO"> F  </i>
    <i type="int" name="IDIPOL">     0</i>
    <i name="EPSILON">      1.00000000</i>
    <v name="DIPOL">   -100.00000000   -100.00000000   -100.00000000</v>
    <i name="EFIELD">      0.00000000</i>
   </separator>
  </separator>
  <separator name="grids" >
   <i type="int" name="NGX">    42</i>
   <i type="int" name="NGY">    42</i>
   <i type="int" name="NGZ">   126</i>
   <i type="int" name="NGXF">    84</i>
   <i type="int" name="NGYF">    84</i>
   <i type="int" name="NGZF">   252</i>
   <i type="logical" name="ADDGRID"> F  </i>
  </separator>
  <separator name="ionic" >
   <i type="int" name="NSW">   100</i>
   <i type="int" name="IBRION">     1</i>
   <i type="int" name="ISIF">     3</i>
   <i name="PSTRESS">      0.00000000</i>
   <i name="EDIFFG">      0.00100000</i>
   <i type="int" name="NFREE">     0</i>
   <i name="POTIM">      0.50000000</i>
   <i name="SMASS">     -3.00000000</i>
   <i name="SCALEE">      1.00000000</i>
  </separator>
  <separator name="ionic md" >
   <i name="TEBEG">      0.00010000</i>
   <i name="TEEND">      0.00010000</i>
   <i type="int" name="NBLOCK">     1</i>
   <i type="int" name="KBLOCK">   100</i>
   <i type="int" name="NPACO">   256</i>
   <i name="APACO">     16.00000000</i>
  </separator>
  <separator name="symmetry" >
   <i type="int" name="ISYM">     0</i>
   <i name="SYMPREC">      0.00000001</i>
  </separator>
  <separator name="dos" >
   <i type="logical" name="LORBIT"> F  </i>
   <v name="RWIGS">     -1.00000000     -1.00000000     -1.00000000     -1.00000000</v>
   <i type="int" name="NEDOS">   301</i>
   <i name="EMIN">     10.00000000</i>
   <i name="EMAX">    -10.00000000</i>
   <i name="EFERMI">      0.00000000</i>
  </separator>
  <separator name="writing" >
   <i type="int" name="NWRITE">     2</i>
   <i type="logical" name="LWAVE"> F  </i>
   <i type="logical" name="LCHARG"> F  </i>
   <i type="logical" name="LPARD"> F  </i>
   <i type="logical" name="LVTOT"> F  </i>
   <i type="logical" name="LVHAR"> F  </i>
   <i type="logical" name="LELF"> F  </i>
   <i type="logical" name="LOPTICS"> F  </i>
   <v name="STM">      0.00000000      0.00000000      0.00000000      0.00000000      0.00000000      0.00000000      0.00000000</v>
  </separator>
  <separator name="performance" >
   <i type="int" name="NPAR">    40</i>
   <i type="int" name="NSIM">     4</i>
   <i type="int" name="NBLK">    -1</i>
   <i type="logical" name="LPLANE"> F  </i>
   <i type="logical" name="LSCALAPACK"> T  </i>
   <i type="logical" name="LSCAAWARE"> F  </i>
   <i type="logical" name="LSCALU"> F  </i>
   <i type="logical" name="LASYNC"> F  </i>
   <i type="logical" name="LORBITALREAL"> F  </i>
  </separator>
  <separator name="miscellaneous" >
   <i type="int" name="IDIOT">     3</i>
   <i type="logical" name="LMUSIC"> F  </i>
   <v name="POMASS">     50.94100000     95.94000000    183.85000000     32.06600000</v>
   <v name="DARWINR">      0.00000000      0.00000000      0.00000000      0.00000000</v>
   <v name="DARWINV">      1.00000000      1.00000000      1.00000000      1.00000000</v>
   <i type="logical" name="LCORR"> T  </i>
  </separator>
  <i type="logical" name="GGA_COMPAT"> T  </i>
  <i type="logical" name="LBERRY"> F  </i>
  <i type="int" name="ICORELEVEL">     0</i>
  <i type="logical" name="LDAU"> F  </i>
  <i type="int" name="I_CONSTRAINED_M">     0</i>
  <separator name="electronic exchange-correlation" >
   <i type="string" name="GGA">--</i>
   <i type="int" name="VOSKOWN">     0</i>
   <i type="logical" name="LHFCALC"> F  </i>
   <i type="string" name="PRECFOCK"></i>
   <i type="logical" name="LSYMGRAD"> F  </i>
   <i type="logical" name="LHFONE"> F  </i>
   <i type="logical" name="LRHFCALC"> F  </i>
   <i type="logical" name="LTHOMAS"> F  </i>
   <i type="logical" name="LMODELHF"> F  </i>
   <i name="ENCUT4O">     -1.00000000</i>
   <i type="int" name="EXXOEP">     0</i>
   <i type="int" name="FOURORBIT">     0</i>
   <i name="AEXX">      0.00000000</i>
   <i name="HFALPHA">      0.00000000</i>
   <i name="MCALPHA">      0.00000000</i>
   <i name="ALDAX">      1.00000000</i>
   <i name="AGGAX">      1.00000000</i>
   <i name="ALDAC">      1.00000000</i>
   <i name="AGGAC">      1.00000000</i>
   <i type="int" name="NKREDX">     1</i>
   <i type="int" name="NKREDY">     1</i>
   <i type="int" name="NKREDZ">     1</i>
   <i type="logical" name="SHIFTRED"> F  </i>
   <i type="logical" name="ODDONLY"> F  </i>
   <i type="logical" name="EVENONLY"> F  </i>
   <i type="int" name="LMAXFOCK">     0</i>
   <i type="int" name="NMAXFOCKAE">     0</i>
   <i type="logical" name="LFOCKAEDFT"> F  </i>
   <i name="HFSCREEN">      0.00000000</i>
   <i name="HFSCREENC">      0.00000000</i>
   <i type="int" name="NBANDSGWLOW">     0</i>
  </separator>
  <separator name="vdW DFT" >
   <i type="logical" name="LUSE_VDW"> F  </i>
   <i name="Zab_VDW">     -0.84910000</i>
   <i name="PARAM1">      0.12340000</i>
   <i name="PARAM2">      1.00000000</i>
   <i name="PARAM3">      0.00000000</i>
  </separator>
  <separator name="model GW" >
   <i type="int" name="MODEL_GW">     0</i>
   <i name="MODEL_EPS0">     58.26239943</i>
   <i name="MODEL_ALPHA">      1.00000000</i>
  </separator>
  <separator name="linear response parameters" >
   <i type="logical" name="LEPSILON"> F  </i>
   <i type="logical" name="LRPA"> F  </i>
   <i type="logical" name="LNABLA"> F  </i>
   <i type="logical" name="LVEL"> F  </i>
   <i type="int" name="KINTER">     0</i>
   <i name="CSHIFT">      0.10000000</i>
   <i name="OMEGAMAX">     -1.00000000</i>
   <i name="DEG_THRESHOLD">      0.00200000</i>
  </separator>
  <separator name="orbital magnetization" >
   <i type="logical" name="NUCIND"> F  </i>
   <v name="MAGPOS">      0.00000000      0.00000000      0.00000000</v>
   <i type="logical" name="LNICSALL"> T  </i>
   <i type="logical" name="ORBITALMAG"> F  </i>
   <i type="logical" name="LMAGBLOCH"> F  </i>
   <i type="logical" name="LCHIMAG"> F  </i>
   <i type="logical" name="LGAUGE"> T  </i>
   <i type="int" name="MAGATOM">     0</i>
   <v name="MAGDIPOL">      0.00000000      0.00000000      0.00000000</v>
   <v name="AVECCONST">      0.00000000      0.00000000      0.00000000</v>
  </separator>
  <separator name="response functions" >
   <i type="logical" name="LADDER"> F  </i>
   <i type="logical" name="LFXC"> F  </i>
   <i type="logical" name="LHARTREE"> T  </i>
   <i type="int" name="IBSE">     0</i>
   <v type="int" name="KPOINT">    -1     0     0     0</v>
   <i type="logical" name="LTCTE"> F  </i>
   <i type="logical" name="LTETE"> F  </i>
   <i type="logical" name="LTRIPLET"> F  </i>
   <i type="logical" name="LFXCEPS"> F  </i>
   <i type="logical" name="LFXHEG"> F  </i>
   <i type="int" name="NATURALO">     0</i>
   <i type="logical" name="L2ORDER"> F  </i>
   <i type="logical" name="LUSEW"> F  </i>
   <i name="ENCUTGW">     -2.00000000</i>
   <i name="ENCUTGWSOFT">     -2.00000000</i>
   <i name="ENCUTLF">     -1.00000000</i>
   <i type="int" name="LMAXMP2">    -1</i>
   <i name="SCISSOR">      0.00000000</i>
   <i type="int" name="NOMEGA">     0</i>
   <i type="int" name="NOMEGAR">     0</i>
   <i type="int" name="NBANDSGW">    -1</i>
   <i type="int" name="NBANDSO">    -1</i>
   <i type="int" name="NBANDSV">    -1</i>
   <i type="int" name="NELM">     1</i>
   <i type="int" name="NELMHF">     1</i>
   <i type="int" name="DIM">     3</i>
   <i type="int" name="ANTIRES">     0</i>
   <i name="OMEGAMAX">    -30.00000000</i>
   <i name="OMEGAMIN">    -30.00000000</i>
   <i name="OMEGATL">   -200.00000000</i>
   <i type="int" name="OMEGAGRID">     0</i>
   <i name="CSHIFT">     -0.10000000</i>
   <i type="logical" name="SELFENERGY"> F  </i>
   <i type="logical" name="LSPECTRAL"> F  </i>
   <i type="logical" name="LSPECTRALGW"> F  </i>
   <i type="logical" name="LSINGLES"> F  </i>
   <i type="logical" name="LFERMIGW"> F  </i>
   <i type="logical" name="ODDONLYGW"> F  </i>
   <i type="logical" name="EVENONLYGW"> F  </i>
   <i type="int" name="NKREDLFX">     1</i>
   <i type="int" name="NKREDLFY">     1</i>
   <i type="int" name="NKREDLFZ">     1</i>
   <i type="int" name="MAXMEM">  1800</i>
   <i type="int" name="TELESCOPE">     0</i>
   <i type="int" name="TAUPAR">     1</i>
   <i type="int" name="OMEGAPAR">    -1</i>
   <i name="LAMBDA">      1.00000000</i>
  </separator>
  <separator name="External order field" >
   <i name="OFIELD_KAPPA">      0.00000000</i>
   <v name="OFIELD_K">      0.00000000      0.00000000      0.00000000</v>
   <i name="OFIELD_Q6_NEAR">      0.00000000</i>
   <i name="OFIELD_Q6_FAR">      0.00000000</i>
   <i name="OFIELD_A">      0.00000000</i>
  </separator>
 </parameters>
 <atominfo>
  <atoms>      27 </atoms>
  <types>       4 </types>
  <array name="atoms" >
   <dimension dim="1">ion</dimension>
   <field type="string">element</field>
   <field type="int">atomtype</field>
   <set>
    <rc><c>V </c><c>   1</c></rc>
    <rc><c>V </c><c>   1</c></rc>
    <rc><c>V </c><c>   1</c></rc>
    <rc><c>Mo</c><c>   2</c></rc>
    <rc><c>Mo</c><c>   2</c></rc>
    <rc><c>Mo</c><c>   2</c></rc>
    <rc><c>W </c><c>   3</c></rc>
    <rc><c>W </c><c>   3</c></rc>
    <rc><c>W </c><c>   3</c></rc>
    <rc><c>S </c><c>   4</c></rc>
    <rc><c>S </c><c>   4</c></rc>
    <rc><c>S </c><c>   4</c></rc>
    <rc><c>S </c><c>   4</c></rc>
    <rc><c>S </c><c>   4</c></rc>
    <rc><c>S </c><c>   4</c></rc>
    <rc><c>S </c><c>   4</c></rc>
    <rc><c>S </c><c>   4</c></rc>
    <rc><c>S </c><c>   4</c></rc>
    <rc><c>S </c><c>   4</c></rc>
    <rc><c>S </c><c>   4</c></rc>
    <rc><c>S </c><c>   4</c></rc>
    <rc><c>S </c><c>   4</c></rc>
    <rc><c>S </c><c>   4</c></rc>
    <rc><c>S </c><c>   4</c></rc>
    <rc><c>S </c><c>   4</c></rc>
    <rc><c>S </c><c>   4</c></rc>
    <rc><c>S </c><c>   4</c></rc>
   </set>
  </array>
  <array name="atomtypes" >
   <dimension dim="1">type</dimension>
   <field type="int">atomspertype</field>
   <field type="string">element</field>
   <field>mass</field>
   <field>valence</field>
   <field type="string">pseudopotential</field>
   <set>
    <rc><c>   3</c><c>V </c><c>     50.94100000</c><c>      5.00000000</c><c> PAW_PBE V 08Apr2002                    </c></rc>
    <rc><c>   3</c><c>Mo</c><c>     95.94000000</c><c>      6.00000000</c><c> PAW_PBE Mo 08Apr2002                   </c></rc>
    <rc><c>   3</c><c>W </c><c>    183.85000000</c><c>      6.00000000</c><c> PAW_PBE W 08Apr2002                    </c></rc>
    <rc><c>  18</c><c>S </c><c>     32.06600000</c><c>      6.00000000</c><c>  PAW_PBE S 17Jan2003                   </c></rc>
   </set>
  </array>
 </atominfo>
 <structure name="initialpos" >
  <crystal>
   <varray name="basis" >
    <v>       8.66999996       5.03999989       0.00000000 </v>
    <v>      -8.66999982       5.04000013       0.00000000 </v>
    <v>       0.00000000       0.00000000      30.00000000 </v>
   </varray>
   <i name="volume">   2621.80797419 </i>
   <varray name="rec_basis" >
    <v>       0.05767013       0.09920635       0.00000000 </v>
    <v>      -0.05767013       0.09920635       0.00000000 </v>
    <v>       0.00000000       0.00000000       0.03333333 </v>
   </varray>
  </crystal>
  <varray name="positions" >
   <v>       0.33333334       0.66666669       0.00000000 </v>
   <v>       0.66666669       0.00000000       0.00000000 </v>
   <v>       0.66666669       0.66666669       0.00000000 </v>
   <v>       0.33333334       0.33333334       0.00000000 </v>
   <v>       0.00000000       0.00000000       0.00000000 </v>
   <v>       1.00000000       0.33333334       0.00000000 </v>
   <v>       0.00000000       0.66666669       0.00000000 </v>
   <v>       0.33333334       0.00000000       0.00000000 </v>
   <v>       0.66666669       0.33333334       0.00000000 </v>
   <v>       0.11068511       0.22244981       0.95539999 </v>
   <v>       0.22244981       0.11068511       0.04460000 </v>
   <v>       0.11068511       0.55578315       0.95539999 </v>
   <v>       0.22244981       0.44401845       0.04460000 </v>
   <v>       0.11068511       0.88911647       0.95539999 </v>
   <v>       0.22244981       0.77735180       0.04460000 </v>
   <v>       0.44401845       0.22244981       0.95539999 </v>
   <v>       0.55578315       0.11068511       0.04460000 </v>
   <v>       0.44401845       0.55578315       0.95539999 </v>
   <v>       0.55578315       0.44401845       0.04460000 </v>
   <v>       0.44401845       0.88911647       0.95539999 </v>
   <v>       0.55578315       0.77735180       0.04460000 </v>
   <v>       0.77735180       0.22244981       0.95539999 </v>
   <v>       0.88911647       0.11068511       0.04460000 </v>
   <v>       0.77735180       0.55578315       0.95539999 </v>
   <v>       0.88911647       0.44401845       0.04460000 </v>
   <v>       0.77735180       0.88911647       0.95539999 </v>
   <v>       0.88911647       0.77735180       0.04460000 </v>
  </varray>
 </structure>
 <calculation>
  <scstep>
   <time name="dav">   21.95   22.01</time>
   <time name="total">   22.00   22.06</time>
   <energy>
    <i name="alphaZ">     81.65567618 </i>
    <i name="ewald">  41891.17177386 </i>
    <i name="hartreedc"> -47723.81786615 </i>
    <i name="XCdc">   -242.92476651 </i>
    <i name="pawpsdc">   3467.42045192 </i>
    <i name="pawaedc">  -2871.19716117 </i>
    <i name="eentropy">     -0.52611614 </i>
    <i name="bandstr">   -238.84531208 </i>
    <i name="atom">   6761.44252427 </i>
    <i name="e_fr_energy">   1124.37920417 </i>
    <i name="e_wo_entrp">   1124.90532032 </i>
    <i name="e_0_energy">   1124.64226224 </i>
   </energy>
  </scstep>
  <scstep>
   <time name="dav">   28.20   28.27</time>
   <time name="total">   28.20   28.27</time>
   <energy>
    <i name="e_fr_energy">     -3.12102269 </i>
    <i name="e_wo_entrp">     -2.92928743 </i>
    <i name="e_0_energy">     -3.02515506 </i>
   </energy>
  </scstep>
  <scstep>
   <time name="dav">   27.58   27.65</time>
   <time name="total">   27.59   27.66</time>
   <energy>
    <i name="e_fr_energy">   -199.68875122 </i>
    <i name="e_wo_entrp">   -199.42225499 </i>
    <i name="e_0_energy">   -199.55550310 </i>
   </energy>
  </scstep>
  <scstep>
   <time name="dav">   30.00   30.07</time>
   <time name="total">   30.00   30.08</time>
   <energy>
    <i name="e_fr_energy">   -208.95214105 </i>
    <i name="e_wo_entrp">   -208.64697269 </i>
    <i name="e_0_energy">   -208.79955687 </i>
   </energy>
  </scstep>
  <scstep>
   <time name="dav">   28.57   28.64</time>
   <time name="total">   29.03   29.11</time>
   <energy>
    <i name="e_fr_energy">   -209.27250426 </i>
    <i name="e_wo_entrp">   -208.97049204 </i>
    <i name="e_0_energy">   -209.12149815 </i>
   </energy>
  </scstep>
  <scstep>
   <time name="dav">   30.48   30.55</time>
   <time name="total">   30.98   31.06</time>
   <energy>
    <i name="e_fr_energy">   -237.51103970 </i>
    <i name="e_wo_entrp">   -237.25923028 </i>
    <i name="e_0_energy">   -237.38513499 </i>
   </energy>
  </scstep>
  <scstep>
   <time name="dav">   32.88   32.96</time>
   <time name="total">   33.38   33.47</time>
   <energy>
    <i name="e_fr_energy">   -196.67617991 </i>
    <i name="e_wo_entrp">   -196.32720661 </i>
    <i name="e_0_energy">   -196.50169326 </i>
   </energy>
  </scstep>
  <scstep>
   <time name="dav">   29.40   29.47</time>
   <time name="total">   29.90   29.98</time>
   <energy>
    <i name="e_fr_energy">   -189.72862422 </i>
    <i name="e_wo_entrp">   -189.41941865 </i>
    <i name="e_0_energy">   -189.57402143 </i>
   </energy>
  </scstep>
  <scstep>
   <time name="dav">   32.07   32.15</time>
   <time name="total">   32.59   32.67</time>
   <energy>
    <i name="e_fr_energy">   -188.20483850 </i>
    <i name="e_wo_entrp">   -187.86810324 </i>
    <i name="e_0_energy">   -188.03647087 </i>
   </energy>
  </scstep>
  <scstep>
   <time name="dav">   32.69   32.77</time>
   <time name="total">   33.22   33.31</time>
   <energy>
    <i name="e_fr_energy">   -186.93382149 </i>
    <i name="e_wo_entrp">   -186.58239703 </i>
    <i name="e_0_energy">   -186.75810926 </i>
   </energy>
  </scstep>
  <scstep>
   <time name="dav">   32.70   32.78</time>
   <time name="total">   33.23   33.32</time>
   <energy>
    <i name="e_fr_energy">   -187.00572745 </i>
    <i name="e_wo_entrp">   -186.66514243 </i>
    <i name="e_0_energy">   -186.83543494 </i>
   </energy>
  </scstep>
  <scstep>
   <time name="dav">   31.77   31.85</time>
   <time name="total">   32.31   32.39</time>
   <energy>
    <i name="e_fr_energy">   -186.91042833 </i>
    <i name="e_wo_entrp">   -186.57583525 </i>
    <i name="e_0_energy">   -186.74313179 </i>
   </energy>
  </scstep>
  <scstep>
   <time name="dav">   32.25   32.32</time>
   <time name="total">   32.78   32.87</time>
   <energy>
    <i name="e_fr_energy">   -186.86935020 </i>
    <i name="e_wo_entrp">   -186.53270997 </i>
    <i name="e_0_energy">   -186.70103008 </i>
   </energy>
  </scstep>
  <scstep>
   <time name="dav">   31.94   32.02</time>
   <time name="total">   32.47   32.56</time>
   <energy>
    <i name="e_fr_energy">   -186.82749594 </i>
    <i name="e_wo_entrp">   -186.48341818 </i>
    <i name="e_0_energy">   -186.65545706 </i>
   </energy>
  </scstep>
  <scstep>
   <time name="dav">   28.82   28.89</time>
   <time name="total">   29.35   29.43</time>
   <energy>
    <i name="e_fr_energy">   -186.82221990 </i>
    <i name="e_wo_entrp">   -186.47847447 </i>
    <i name="e_0_energy">   -186.65034718 </i>
   </energy>
  </scstep>
  <scstep>
   <time name="dav">   31.26   31.34</time>
   <time name="total">   31.80   31.88</time>
   <energy>
    <i name="e_fr_energy">   -186.82034227 </i>
    <i name="e_wo_entrp">   -186.47813308 </i>
    <i name="e_0_energy">   -186.64923768 </i>
   </energy>
  </scstep>
  <scstep>
   <time name="dav">   31.42   31.50</time>
   <time name="total">   31.96   32.04</time>
   <energy>
    <i name="e_fr_energy">   -186.81991024 </i>
    <i name="e_wo_entrp">   -186.47712051 </i>
    <i name="e_0_energy">   -186.64851538 </i>
   </energy>
  </scstep>
  <scstep>
   <time name="dav">   26.21   26.28</time>
   <time name="total">   26.74   26.82</time>
   <energy>
    <i name="e_fr_energy">   -186.82002984 </i>
    <i name="e_wo_entrp">   -186.47730713 </i>
    <i name="e_0_energy">   -186.64866848 </i>
   </energy>
  </scstep>
  <scstep>
   <time name="dav">   27.42   27.49</time>
   <time name="total">   27.96   28.03</time>
   <energy>
    <i name="e_fr_energy">   -186.82045651 </i>
    <i name="e_wo_entrp">   -186.47817948 </i>
    <i name="e_0_energy">   -186.64931800 </i>
   </energy>
  </scstep>
  <scstep>
   <time name="dav">   20.89   20.94</time>
   <time name="total">   21.42   21.48</time>
   <energy>
    <i name="e_fr_energy">   -186.82096791 </i>
    <i name="e_wo_entrp">   -186.47865058 </i>
    <i name="e_0_energy">   -186.64980924 </i>
   </energy>
  </scstep>
  <scstep>
   <time name="dav">   20.97   21.02</time>
   <time name="total">   21.50   21.56</time>
   <energy>
    <i name="e_fr_energy">   -186.82195316 </i>
    <i name="e_wo_entrp">   -186.47949170 </i>
    <i name="e_0_energy">   -186.65072243 </i>
   </energy>
  </scstep>
  <scstep>
   <time name="dav">   20.84   20.89</time>
   <time name="total">   21.37   21.43</time>
   <energy>
    <i name="e_fr_energy">   -186.82329119 </i>
    <i name="e_wo_entrp">   -186.48095479 </i>
    <i name="e_0_energy">   -186.65212299 </i>
   </energy>
  </scstep>
  <scstep>
   <time name="dav">   19.04   19.09</time>
   <time name="total">   19.58   19.63</time>
   <energy>
    <i name="e_fr_energy">   -186.82399701 </i>
    <i name="e_wo_entrp">   -186.48165177 </i>
    <i name="e_0_energy">   -186.65282439 </i>
   </energy>
  </scstep>
  <scstep>
   <time name="dav">   16.76   16.80</time>
   <time name="total">   17.29   17.34</time>
   <energy>
    <i name="e_fr_energy">   -186.82446525 </i>
    <i name="e_wo_entrp">   -186.48206912 </i>
    <i name="e_0_energy">   -186.65326718 </i>
   </energy>
  </scstep>
  <scstep>
   <time name="dav">   19.50   19.55</time>
   <time name="total">   20.03   20.09</time>
   <energy>
    <i name="e_fr_energy">   -186.82466893 </i>
    <i name="e_wo_entrp">   -186.48227876 </i>
    <i name="e_0_energy">   -186.65347384 </i>
   </energy>
  </scstep>
  <scstep>
   <time name="dav">   18.65   18.69</time>
   <time name="total">   19.18   19.24</time>
   <energy>
    <i name="e_fr_energy">   -186.82479167 </i>
    <i name="e_wo_entrp">   -186.48240833 </i>
    <i name="e_0_energy">   -186.65360000 </i>
   </energy>
  </scstep>
  <scstep>
   <time name="dav">   19.25   19.30</time>
   <time name="total">   19.29   19.34</time>
   <energy>
    <i name="alphaZ">     81.65567618 </i>
    <i name="ewald">  41891.17177386 </i>
    <i name="hartreedc"> -47833.68159798 </i>
    <i name="XCdc">   -231.60840357 </i>
    <i name="pawpsdc">   4192.08397364 </i>
    <i name="pawaedc">  -3610.08176807 </i>
    <i name="eentropy">     -0.34238118 </i>
    <i name="bandstr">  -1437.46467927 </i>
    <i name="atom">   6761.44252427 </i>
    <i name="e_fr_energy">   -186.82488214 </i>
    <i name="e_wo_entrp">   -186.48250095 </i>
    <i name="e_0_energy">   -186.65369155 </i>
   </energy>
  </scstep>
  <structure>
   <crystal>
    <varray name="basis" >
     <v>       8.66999996       5.03999989       0.00000000 </v>
     <v>      -8.66999982       5.04000013       0.00000000 </v>
     <v>       0.00000000       0.00000000      30.00000000 </v>
    </varray>
    <i name="volume">   2621.80797419 </i>
    <varray name="rec_basis" >
     <v>       0.05767013       0.09920635       0.00000000 </v>
     <v>      -0.05767013       0.09920635       0.00000000 </v>
     <v>       0.00000000       0.00000000       0.03333333 </v>
    </varray>
   </crystal>
   <varray name="positions" >
    <v>       0.33333334       0.66666669       0.00000000 </v>
    <v>       0.66666669       0.00000000       0.00000000 </v>
    <v>       0.66666669       0.66666669       0.00000000 </v>
    <v>       0.33333334       0.33333334       0.00000000 </v>
    <v>       0.00000000       0.00000000       0.00000000 </v>
    <v>       1.00000000       0.33333334       0.00000000 </v>
    <v>       0.00000000       0.66666669       0.00000000 </v>
    <v>       0.33333334       0.00000000       0.00000000 </v>
    <v>       0.66666669       0.33333334       0.00000000 </v>
    <v>       0.11068511       0.22244981       0.95539999 </v>
    <v>       0.22244981       0.11068511       0.04460000 </v>
    <v>       0.11068511       0.55578315       0.95539999 </v>
    <v>       0.22244981       0.44401845       0.04460000 </v>
    <v>       0.11068511       0.88911647       0.95539999 </v>
    <v>       0.22244981       0.77735180       0.04460000 </v>
    <v>       0.44401845       0.22244981       0.95539999 </v>
    <v>       0.55578315       0.11068511       0.04460000 </v>
    <v>       0.44401845       0.55578315       0.95539999 </v>
    <v>       0.55578315       0.44401845       0.04460000 </v>
    <v>       0.44401845       0.88911647       0.95539999 </v>
    <v>       0.55578315       0.77735180       0.04460000 </v>
    <v>       0.77735180       0.22244981       0.95539999 </v>
    <v>       0.88911647       0.11068511       0.04460000 </v>
    <v>       0.77735180       0.55578315       0.95539999 </v>
    <v>       0.88911647       0.44401845       0.04460000 </v>
    <v>       0.77735180       0.88911647       0.95539999 </v>
    <v>       0.88911647       0.77735180       0.04460000 </v>
   </varray>
  </structure>
  <varray name="forces" >
   <v>       0.30167977      -0.21333576      -0.01942659 </v>
   <v>       0.30089405       0.21618971      -0.01980956 </v>
   <v>      -0.18102799       0.00068990       0.03025297 </v>
   <v>      -0.29282306      -0.41023696       0.10909793 </v>
   <v>      -0.29223219       0.40384502       0.10971820 </v>
   <v>       0.53833812      -0.00241007      -0.08244828 </v>
   <v>      -0.00660158       0.00315171      -0.09382564 </v>
   <v>      -0.42052155      -0.00470331       0.03799630 </v>
   <v>      -0.00863372      -0.01215839      -0.09526648 </v>
   <v>       0.08459160       0.00202438      -2.93767796 </v>
   <v>       0.05649376       0.00191148       2.96606179 </v>
   <v>       0.34860687       0.68128957      -2.15871291 </v>
   <v>      -0.50096040       0.70753162       2.17087364 </v>
   <v>       0.29241577      -0.03193156      -2.87645454 </v>
   <v>       0.59702312       0.02070577       2.12004400 </v>
   <v>       0.29288375       0.03705350      -2.87619843 </v>
   <v>       0.59758125      -0.01556319       2.12036625 </v>
   <v>      -0.33195342       0.67768799      -1.41109780 </v>
   <v>      -0.37161633       0.68227108       2.12539357 </v>
   <v>       0.74469274      -0.00107596      -1.41008036 </v>
   <v>      -0.05219794      -0.00137718       0.78448863 </v>
   <v>       0.35185309      -0.68137200      -2.15493480 </v>
   <v>      -0.50353091      -0.70773479       2.16747577 </v>
   <v>      -0.57528456       0.00235678      -2.15866212 </v>
   <v>      -0.26548502       0.00281708       2.83908393 </v>
   <v>      -0.32944443      -0.67652341      -1.40800352 </v>
   <v>      -0.37474077      -0.68110301       2.12174599 </v>
  </varray>
  <varray name="stress" >
   <v>       7.16067327      -0.00016506      -1.38350287 </v>
   <v>      -0.00016493       4.60065814      -0.00002377 </v>
   <v>      -1.38350292      -0.00002368      30.31850783 </v>
  </varray>
  <energy>
   <i name="e_fr_energy">   -186.82488214 </i>
   <i name="e_wo_entrp">   -186.65369155 </i>
   <i name="e_0_energy">     -0.34238118 </i>
  </energy>
  <time name="totalsc">  776.97  779.04</time>
 </calculation>
 <calculation>
  <scstep>
   <time name="dav">   21.83   21.88</time>
   <time name="total">   22.37   22.43</time>
   <energy>
    <i name="alphaZ">     78.91951952 </i>
    <i name="ewald">  39378.11020656 </i>
    <i name="hartreedc"> -45335.42405827 </i>
    <i name="XCdc">   -239.07677986 </i>
    <i name="pawpsdc">   4192.06482743 </i>
    <i name="pawaedc">  -3610.06287002 </i>
    <i name="eentropy">     -0.28232244 </i>
    <i name="bandstr">  -1413.18482768 </i>
    <i name="atom">   6761.44252427 </i>
    <i name="e_fr_energy">   -187.49378049 </i>
    <i name="e_wo_entrp">   -187.21145805 </i>
    <i name="e_0_energy">   -187.35261927 </i>
   </energy>
  </scstep>
  <scstep>
   <time name="dav">   30.30   30.38</time>
   <time name="total">   30.84   30.92</time>
   <energy>
    <i name="e_fr_energy">   -189.37149723 </i>
    <i name="e_wo_entrp">   -189.05407233 </i>
    <i name="e_0_energy">   -189.21278478 </i>
   </energy>
  </scstep>
  <scstep>
   <time name="dav">   30.54   30.61</time>
   <time name="total">   31.09   31.17</time>
   <energy>
    <i name="e_fr_energy">   -189.33304192 </i>
    <i name="e_wo_entrp">   -189.06736522 </i>
    <i name="e_0_energy">   -189.20020357 </i>
   </energy>
  </scstep>
  <scstep>
   <time name="dav">   30.78   30.85</time>
   <time name="total">   31.32   31.40</time>
   <energy>
    <i name="e_fr_energy">   -188.74849507 </i>
    <i name="e_wo_entrp">   -188.46534997 </i>
    <i name="e_0_energy">   -188.60692252 </i>
   </energy>
  </scstep>
  <scstep>
   <time name="dav">   25.89   25.95</time>
   <time name="total">   26.43   26.50</time>
   <energy>
    <i name="e_fr_energy">   -188.74633230 </i>
    <i name="e_wo_entrp">   -188.46655785 </i>
    <i name="e_0_energy">   -188.60644507 </i>
   </energy>
  </scstep>
  <scstep>
   <time name="dav">   30.35   30.42</time>
   <time name="total">   30.90   30.98</time>
   <energy>
    <i name="e_fr_energy">   -188.71228652 </i>
    <i name="e_wo_entrp">   -188.42960460 </i>
    <i name="e_0_energy">   -188.57094556 </i>
   </energy>
  </scstep>
  <scstep>
   <time name="dav">   31.31   31.38</time>
   <time name="total">   31.85   31.94</time>
   <energy>
    <i name="e_fr_energy">   -188.70315729 </i>
    <i name="e_wo_entrp">   -188.42011174 </i>
    <i name="e_0_energy">   -188.56163451 </i>
   </energy>
  </scstep>
  <scstep>
   <time name="dav">   31.38   31.45</time>
   <time name="total">   31.92   32.00</time>
   <energy>
    <i name="e_fr_energy">   -188.66090006 </i>
    <i name="e_wo_entrp">   -188.38091496 </i>
    <i name="e_0_energy">   -188.52090751 </i>
   </energy>
  </scstep>
  <scstep>
   <time name="dav">   25.82   25.88</time>
   <time name="total">   26.36   26.43</time>
   <energy>
    <i name="e_fr_energy">   -188.65815181 </i>
    <i name="e_wo_entrp">   -188.37856895 </i>
    <i name="e_0_energy">   -188.51836038 </i>
   </energy>
  </scstep>
  <scstep>
   <time name="dav">   30.24   30.31</time>
   <time name="total">   30.78   30.86</time>
   <energy>
    <i name="e_fr_energy">   -188.65794421 </i>
    <i name="e_wo_entrp">   -188.37895059 </i>
    <i name="e_0_energy">   -188.51844740 </i>
   </energy>
  </scstep>
  <scstep>
   <time name="dav">   32.82   32.90</time>
   <time name="total">   33.36   33.45</time>
   <energy>
    <i name="e_fr_energy">   -188.65804171 </i>
    <i name="e_wo_entrp">   -188.37909427 </i>
    <i name="e_0_energy">   -188.51856799 </i>
   </energy>
  </scstep>
  <scstep>
   <time name="dav">   26.98   27.04</time>
   <time name="total">   27.52   27.59</time>
   <energy>
    <i name="e_fr_energy">   -188.65781434 </i>
    <i name="e_wo_entrp">   -188.37886952 </i>
    <i name="e_0_energy">   -188.51834193 </i>
   </energy>
  </scstep>
  <scstep>
   <time name="dav">   20.21   20.25</time>
   <time name="total">   20.24   20.30</time>
   <energy>
    <i name="alphaZ">     78.91951952 </i>
    <i name="ewald">  39378.11020656 </i>
    <i name="hartreedc"> -45346.27334992 </i>
    <i name="XCdc">   -237.98282972 </i>
    <i name="pawpsdc">   3950.26172113 </i>
    <i name="pawaedc">  -3364.76304061 </i>
    <i name="eentropy">     -0.27899956 </i>
    <i name="bandstr">  -1408.09351692 </i>
    <i name="atom">   6761.44252427 </i>
    <i name="e_fr_energy">   -188.65776524 </i>
    <i name="e_wo_entrp">   -188.37876568 </i>
    <i name="e_0_energy">   -188.51826546 </i>
   </energy>
  </scstep>
  <structure>
   <crystal>
    <varray name="basis" >
     <v>       8.85152012       5.10779236       0.00000000 </v>
     <v>      -8.85152484       5.10780097       0.00000000 </v>
     <v>       0.00000000       0.00000000      30.00000000 </v>
    </varray>
    <i name="volume">   2712.70661845 </i>
    <varray name="rec_basis" >
     <v>       0.05648751       0.09788959       0.00000000 </v>
     <v>      -0.05648741       0.09788954       0.00000000 </v>
     <v>       0.00000000       0.00000000       0.03333333 </v>
    </varray>
   </crystal>
   <varray name="positions" >
    <v>       0.33315164       0.66480635      -0.00003124 </v>
    <v>       0.66853850       0.00019754      -0.00003186 </v>
    <v>       0.66616634       0.66717364       0.00004865 </v>
    <v>       0.33055528       0.33218464       0.00017544 </v>
    <v>       0.00111976       0.00274583       0.00017644 </v>
    <v>       1.00148621       0.33182407      -0.00013258 </v>
    <v>      -0.00000328       0.66670014      -0.00015088 </v>
    <v>       0.33214088       0.00114745       0.00006110 </v>
    <v>       0.66658448       0.33329917      -0.00015320 </v>
    <v>       0.11093015       0.22222415       0.95067594 </v>
    <v>       0.22261613       0.11053708       0.04936969 </v>
    <v>       0.11491563       0.55807391       0.95192859 </v>
    <v>       0.22444229       0.44879844       0.04809096 </v>
    <v>       0.11134583       0.88815009       0.95077440 </v>
    <v>       0.22420992       0.77578988       0.04800922 </v>
    <v>       0.44501064       0.22181230       0.95077481 </v>
    <v>       0.55737123       0.10894806       0.04800974 </v>
    <v>       0.44633831       0.55995010       0.95313082 </v>
    <v>       0.55801459       0.44831768       0.04801782 </v>
    <v>       0.44608516       0.88703946       0.95313246 </v>
    <v>       0.55563134       0.77749043       0.04586153 </v>
    <v>       0.77506968       0.21820987       0.95193466 </v>
    <v>       0.88432836       0.10869881       0.04808549 </v>
    <v>       0.77576254       0.55739497       0.95192867 </v>
    <v>       0.88839133       0.44477056       0.04916550 </v>
    <v>       0.77319740       0.88679521       0.95313580 </v>
    <v>       0.88481413       0.77513464       0.04801195 </v>
   </varray>
  </structure>
  <varray name="forces" >
   <v>       0.17863812      -0.22761191      -0.09428990 </v>
   <v>       0.17788655       0.22694883      -0.09327290 </v>
   <v>      -0.01372434      -0.00080796       0.06510898 </v>
   <v>      -0.09563439      -0.66569981       0.03139542 </v>
   <v>      -0.09442554       0.66454452       0.03055015 </v>
   <v>       0.47713025       0.00128494      -0.01811075 </v>
   <v>       0.00250971      -0.06187747       0.06560107 </v>
   <v>      -0.56239973      -0.00094562      -0.05592259 </v>
   <v>      -0.00058699       0.06123202       0.06734160 </v>
   <v>      -0.00846941       0.00044418      -0.35269431 </v>
   <v>       0.11648215       0.00032400       0.31734111 </v>
   <v>      -0.09600040       0.04503332       0.01833313 </v>
   <v>      -0.01988380       0.06903581       0.15602548 </v>
   <v>       0.08966021      -0.00506110       0.00216446 </v>
   <v>      -0.09038668       0.01591151      -0.13706857 </v>
   <v>       0.09031630       0.00582338       0.00164468 </v>
   <v>      -0.08968752      -0.01601783      -0.13775194 </v>
   <v>      -0.01682072       0.04322659       0.08982061 </v>
   <v>       0.10461825       0.03876104      -0.13605817 </v>
   <v>      -0.09969284       0.00027220       0.34002621 </v>
   <v>      -0.00601710      -0.00019108      -0.13900314 </v>
   <v>      -0.09564068      -0.04557630       0.01699334 </v>
   <v>      -0.01964783      -0.06865869       0.15677483 </v>
   <v>       0.07749307      -0.00004796      -0.00462260 </v>
   <v>      -0.09303629       0.00029064      -0.14418886 </v>
   <v>      -0.01666614      -0.04253896       0.08853678 </v>
   <v>       0.10398577      -0.03809830      -0.13467412 </v>
  </varray>
  <varray name="stress" >
   <v>     -19.91439122       0.00042222       0.05795855 </v>
   <v>       0.00042224     -19.52451775      -0.00028798 </v>
   <v>       0.05795839      -0.00028794      -1.78023078 </v>
  </varray>
  <energy>
   <i name="e_fr_energy">   -188.65776524 </i>
   <i name="e_wo_entrp">   -188.51826546 </i>
   <i name="e_0_energy">     -0.27899956 </i>
  </energy>
  <time name="totalsc">  417.04  418.44</time>
 </calculation>
 <calculation>
  <scstep>
   <time name="dav">   23.86   23.92</time>
   <time name="total">   24.39   24.45</time>
   <energy>
    <i name="alphaZ">     82.33508968 </i>
    <i name="ewald">  41296.77137830 </i>
    <i name="hartreedc"> -47295.26719556 </i>
    <i name="XCdc">   -233.87141638 </i>
    <i name="pawpsdc">   3949.14604256 </i>
    <i name="pawaedc">  -3363.63699608 </i>
    <i name="eentropy">     -0.23541966 </i>
    <i name="bandstr">  -1387.26353377 </i>
    <i name="atom">   6761.44252427 </i>
    <i name="e_fr_energy">   -190.57952664 </i>
    <i name="e_wo_entrp">   -190.34410698 </i>
    <i name="e_0_energy">   -190.46181681 </i>
   </energy>
  </scstep>
  <scstep>
   <time name="dav">   28.65   28.72</time>
   <time name="total">   29.17   29.25</time>
   <energy>
    <i name="e_fr_energy">   -190.51187207 </i>
    <i name="e_wo_entrp">   -190.28675151 </i>
    <i name="e_0_energy">   -190.39931179 </i>
   </energy>
  </scstep>
  <scstep>
   <time name="dav">   30.40   30.48</time>
   <time name="total">   30.93   31.01</time>
   <energy>
    <i name="e_fr_energy">   -190.06664832 </i>
    <i name="e_wo_entrp">   -189.81665355 </i>
    <i name="e_0_energy">   -189.94165093 </i>
   </energy>
  </scstep>
  <scstep>
   <time name="dav">   31.96   32.03</time>
   <time name="total">   32.49   32.57</time>
   <energy>
    <i name="e_fr_energy">   -189.85563324 </i>
    <i name="e_wo_entrp">   -189.62598136 </i>
    <i name="e_0_energy">   -189.74080730 </i>
   </energy>
  </scstep>
  <scstep>
   <time name="dav">   29.35   29.42</time>
   <time name="total">   29.88   29.96</time>
   <energy>
    <i name="e_fr_energy">   -189.76640087 </i>
    <i name="e_wo_entrp">   -189.52994933 </i>
    <i name="e_0_energy">   -189.64817510 </i>
   </energy>
  </scstep>
  <scstep>
   <time name="dav">   29.12   29.19</time>
   <time name="total">   29.65   29.73</time>
   <energy>
    <i name="e_fr_energy">   -189.75640483 </i>
    <i name="e_wo_entrp">   -189.51951297 </i>
    <i name="e_0_energy">   -189.63795890 </i>
   </energy>
  </scstep>
  <scstep>
   <time name="dav">   29.16   29.23</time>
   <time name="total">   29.69   29.77</time>
   <energy>
    <i name="e_fr_energy">   -189.75347574 </i>
    <i name="e_wo_entrp">   -189.51666768 </i>
    <i name="e_0_energy">   -189.63507171 </i>
   </energy>
  </scstep>
  <scstep>
   <time name="dav">   30.42   30.49</time>
   <time name="total">   30.95   31.03</time>
   <energy>
    <i name="e_fr_energy">   -189.75292076 </i>
    <i name="e_wo_entrp">   -189.51627662 </i>
    <i name="e_0_energy">   -189.63459869 </i>
   </energy>
  </scstep>
  <scstep>
   <time name="dav">   26.16   26.23</time>
   <time name="total">   26.69   26.77</time>
   <energy>
    <i name="e_fr_energy">   -189.75337708 </i>
    <i name="e_wo_entrp">   -189.51672546 </i>
    <i name="e_0_energy">   -189.63505127 </i>
   </energy>
  </scstep>
  <scstep>
   <time name="dav">   27.41   27.48</time>
   <time name="total">   27.94   28.01</time>
   <energy>
    <i name="e_fr_energy">   -189.75308424 </i>
    <i name="e_wo_entrp">   -189.51626156 </i>
    <i name="e_0_energy">   -189.63467290 </i>
   </energy>
  </scstep>
  <scstep>
   <time name="dav">   20.85   20.90</time>
   <time name="total">   20.88   20.94</time>
   <energy>
    <i name="alphaZ">     82.33508968 </i>
    <i name="ewald">  41296.77137830 </i>
    <i name="hartreedc"> -47268.81525634 </i>
    <i name="XCdc">   -235.25672633 </i>
    <i name="pawpsdc">   4038.33478146 </i>
    <i name="pawaedc">  -3454.03224945 </i>
    <i name="eentropy">     -0.23682478 </i>
    <i name="bandstr">  -1410.29587193 </i>
    <i name="atom">   6761.44252427 </i>
    <i name="e_fr_energy">   -189.75315512 </i>
    <i name="e_wo_entrp">   -189.51633035 </i>
    <i name="e_0_energy">   -189.63474273 </i>
   </energy>
  </scstep>
  <structure>
   <crystal>
    <varray name="basis" >
     <v>       8.66414658       5.00178746       0.00000000 </v>
     <v>      -8.66414662       5.00178794       0.00000000 </v>
     <v>       0.00000000       0.00000000      30.00000000 </v>
    </varray>
    <i name="volume">   2600.17331346 </i>
    <varray name="rec_basis" >
     <v>       0.05770909       0.09996426       0.00000000 </v>
     <v>      -0.05770909       0.09996426       0.00000000 </v>
     <v>       0.00000000       0.00000000       0.03333333 </v>
    </varray>
   </crystal>
   <varray name="positions" >
    <v>       0.33294501       0.66425761      -0.00008452 </v>
    <v>       0.66908542       0.00040380      -0.00008456 </v>
    <v>       0.66615186       0.66718544       0.00008544 </v>
    <v>       0.32935908       0.33117159       0.00019318 </v>
    <v>       0.00213205       0.00393895       0.00019370 </v>
    <v>       1.00194521       0.33136933      -0.00014282 </v>
    <v>      -0.00010356       0.66659506      -0.00011381 </v>
    <v>       0.33160079       0.00168439       0.00002950 </v>
    <v>       0.66668552       0.33340134      -0.00011515 </v>
    <v>       0.11092277       0.22223300       0.95047666 </v>
    <v>       0.22272821       0.11042609       0.04954900 </v>
    <v>       0.11489843       0.55824056       0.95193895 </v>
    <v>       0.22453780       0.44893203       0.04817912 </v>
    <v>       0.11142329       0.88805584       0.95077562 </v>
    <v>       0.22414978       0.77590283       0.04793177 </v>
    <v>       0.44510678       0.22173548       0.95077574 </v>
    <v>       0.55725878       0.10900736       0.04793190 </v>
    <v>       0.44639393       0.56003793       0.95318157 </v>
    <v>       0.55817908       0.44828183       0.04794094 </v>
    <v>       0.44599015       0.88713537       0.95332458 </v>
    <v>       0.55562526       0.77749587       0.04578298 </v>
    <v>       0.77490247       0.21822582       0.95194427 </v>
    <v>       0.88419562       0.10860370       0.04817408 </v>
    <v>       0.77583666       0.55732068       0.95192606 </v>
    <v>       0.88830272       0.44486012       0.04908402 </v>
    <v>       0.77311086       0.88674058       0.95318582 </v>
    <v>       0.88485048       0.77497185       0.04793586 </v>
   </varray>
  </structure>
  <varray name="forces" >
   <v>       0.12424166      -0.25511029      -0.09328256 </v>
   <v>       0.12245061       0.26384600      -0.09266647 </v>
   <v>       0.07806898       0.00199694       0.05209756 </v>
   <v>      -0.02064043      -0.74322942       0.00693073 </v>
   <v>      -0.02909014       0.73520629       0.00552637 </v>
   <v>       0.43810912      -0.01027913       0.00392524 </v>
   <v>      -0.00252619      -0.09237809       0.08288212 </v>
   <v>      -0.62024943       0.00163308      -0.06720074 </v>
   <v>       0.00227150       0.08536673       0.08555255 </v>
   <v>      -0.00078392       0.00115587      -0.91765619 </v>
   <v>       0.02463159       0.00076447       0.91858668 </v>
   <v>       0.02782722       0.09611318      -0.48017719 </v>
   <v>      -0.05651011       0.12738866       0.65522432 </v>
   <v>      -0.00237727      -0.01242405      -0.54974928 </v>
   <v>       0.05814285       0.02768332       0.35860309 </v>
   <v>      -0.00251984       0.01409452      -0.55192765 </v>
   <v>       0.06525380      -0.02732596       0.35434362 </v>
   <v>      -0.03138353       0.08730364      -0.34598952 </v>
   <v>      -0.02929517       0.08213102       0.34236673 </v>
   <v>       0.04379975       0.00641552      -0.08930201 </v>
   <v>      -0.01850480       0.00658107       0.27572797 </v>
   <v>       0.03145444      -0.10046480      -0.47937503 </v>
   <v>      -0.05911899      -0.13176956       0.65388039 </v>
   <v>      -0.07940173       0.00032727      -0.52607312 </v>
   <v>       0.00419261       0.00092173       0.39500087 </v>
   <v>      -0.03863970      -0.08575213      -0.34275871 </v>
   <v>      -0.02940286      -0.08019588       0.34551024 </v>
  </varray>
  <varray name="stress" >
   <v>     -10.17190130      -0.00315092       0.00711169 </v>
   <v>      -0.00315104      -9.93201252      -0.00199940 </v>
   <v>       0.00711191      -0.00199941       6.45545791 </v>
  </varray>
  <energy>
   <i name="e_fr_energy">   -189.75315512 </i>
   <i name="e_wo_entrp">   -189.63474273 </i>
   <i name="e_0_energy">     -0.23682478 </i>
  </energy>
  <time name="totalsc">  354.43  355.36</time>
 </calculation>
 <calculation>
  <scstep>
   <time name="dav">   21.83   21.88</time>
   <time name="total">   22.35   22.41</time>
   <energy>
    <i name="alphaZ">     85.84207140 </i>
    <i name="ewald">  42845.22038771 </i>
    <i name="hartreedc"> -48861.89484691 </i>
    <i name="XCdc">   -232.93617792 </i>
    <i name="pawpsdc">   4038.56338102 </i>
    <i name="pawaedc">  -3454.26101962 </i>
    <i name="eentropy">     -0.20288306 </i>
    <i name="bandstr">  -1373.13534370 </i>
    <i name="atom">   6761.44252427 </i>
    <i name="e_fr_energy">   -191.36190681 </i>
    <i name="e_wo_entrp">   -191.15902375 </i>
    <i name="e_0_energy">   -191.26046528 </i>
   </energy>
  </scstep>
  <scstep>
   <time name="dav">   31.90   31.98</time>
   <time name="total">   32.41   32.50</time>
   <energy>
    <i name="e_fr_energy">   -191.16556803 </i>
    <i name="e_wo_entrp">   -190.97018279 </i>
    <i name="e_0_energy">   -191.06787541 </i>
   </energy>
  </scstep>
  <scstep>
   <time name="dav">   30.14   30.21</time>
   <time name="total">   30.65   30.73</time>
   <energy>
    <i name="e_fr_energy">   -191.30399793 </i>
    <i name="e_wo_entrp">   -191.07888724 </i>
    <i name="e_0_energy">   -191.19144258 </i>
   </energy>
  </scstep>
  <scstep>
   <time name="dav">   31.81   31.89</time>
   <time name="total">   32.33   32.42</time>
   <energy>
    <i name="e_fr_energy">   -190.90603895 </i>
    <i name="e_wo_entrp">   -190.70688595 </i>
    <i name="e_0_energy">   -190.80646245 </i>
   </energy>
  </scstep>
  <scstep>
   <time name="dav">   28.50   28.56</time>
   <time name="total">   29.02   29.09</time>
   <energy>
    <i name="e_fr_energy">   -190.78776320 </i>
    <i name="e_wo_entrp">   -190.58381380 </i>
    <i name="e_0_energy">   -190.68578850 </i>
   </energy>
  </scstep>
  <scstep>
   <time name="dav">   29.63   29.70</time>
   <time name="total">   30.15   30.23</time>
   <energy>
    <i name="e_fr_energy">   -190.78258779 </i>
    <i name="e_wo_entrp">   -190.57451341 </i>
    <i name="e_0_energy">   -190.67855060 </i>
   </energy>
  </scstep>
  <scstep>
   <time name="dav">   28.93   29.01</time>
   <time name="total">   29.45   29.53</time>
   <energy>
    <i name="e_fr_energy">   -190.77033539 </i>
    <i name="e_wo_entrp">   -190.56271171 </i>
    <i name="e_0_energy">   -190.66652355 </i>
   </energy>
  </scstep>
  <scstep>
   <time name="dav">   30.08   30.15</time>
   <time name="total">   30.60   30.68</time>
   <energy>
    <i name="e_fr_energy">   -190.76519457 </i>
    <i name="e_wo_entrp">   -190.55829341 </i>
    <i name="e_0_energy">   -190.66174399 </i>
   </energy>
  </scstep>
  <scstep>
   <time name="dav">   29.20   29.27</time>
   <time name="total">   29.71   29.79</time>
   <energy>
    <i name="e_fr_energy">   -190.76571498 </i>
    <i name="e_wo_entrp">   -190.55872243 </i>
    <i name="e_0_energy">   -190.66221871 </i>
   </energy>
  </scstep>
  <scstep>
   <time name="dav">   29.36   29.43</time>
   <time name="total">   29.88   29.95</time>
   <energy>
    <i name="e_fr_energy">   -190.76578176 </i>
    <i name="e_wo_entrp">   -190.55887062 </i>
    <i name="e_0_energy">   -190.66232619 </i>
   </energy>
  </scstep>
  <scstep>
   <time name="dav">   25.62   25.69</time>
   <time name="total">   26.15   26.22</time>
   <energy>
    <i name="e_fr_energy">   -190.76533262 </i>
    <i name="e_wo_entrp">   -190.55832738 </i>
    <i name="e_0_energy">   -190.66183000 </i>
   </energy>
  </scstep>
  <scstep>
   <time name="dav">   17.46   17.50</time>
   <time name="total">   17.50   17.55</time>
   <energy>
    <i name="alphaZ">     85.84207140 </i>
    <i name="ewald">  42845.22038771 </i>
    <i name="hartreedc"> -48833.22284671 </i>
    <i name="XCdc">   -234.27342900 </i>
    <i name="pawpsdc">   4064.63864241 </i>
    <i name="pawaedc">  -3480.53369387 </i>
    <i name="eentropy">     -0.20708475 </i>
    <i name="bandstr">  -1399.67189897 </i>
    <i name="atom">   6761.44252427 </i>
    <i name="e_fr_energy">   -190.76532752 </i>
    <i name="e_wo_entrp">   -190.55824276 </i>
    <i name="e_0_energy">   -190.66178514 </i>
   </energy>
  </scstep>
  <structure>
   <crystal>
    <varray name="basis" >
     <v>       8.48258355       4.89993025       0.00000000 </v>
     <v>      -8.48275704       4.90023117       0.00000000 </v>
     <v>       0.00000000       0.00000000      30.00000000 </v>
    </varray>
    <i name="volume">   2493.94614372 </i>
    <varray name="rec_basis" >
     <v>       0.05894551       0.10204018       0.00000000 </v>
     <v>      -0.05894189       0.10203809       0.00000000 </v>
     <v>       0.00000000       0.00000000       0.03333333 </v>
    </varray>
   </crystal>
   <varray name="positions" >
    <v>       0.33164818       0.66221956      -0.00027689 </v>
    <v>       0.67119382       0.00178696      -0.00027599 </v>
    <v>       0.66658689       0.66678952       0.00018223 </v>
    <v>       0.32454174       0.32628617       0.00018661 </v>
    <v>       0.00690537       0.00873334       0.00018374 </v>
    <v>       1.00338010       0.32974754      -0.00011584 </v>
    <v>      -0.00077540       0.66595610       0.00007266 </v>
    <v>       0.32928983       0.00402878      -0.00011935 </v>
    <v>       0.66729336       0.33398446       0.00007765 </v>
    <v>       0.11094011       0.22223372       0.94809252 </v>
    <v>       0.22269007       0.11047601       0.05196610 </v>
    <v>       0.11590909       0.55869090       0.95051787 </v>
    <v>       0.22522500       0.45013427       0.04996339 </v>
    <v>       0.11118494       0.88810152       0.94916475 </v>
    <v>       0.22477843       0.77568021       0.04909858 </v>
    <v>       0.44507218       0.22198825       0.94915893 </v>
    <v>       0.55751982       0.10834709       0.04908683 </v>
    <v>       0.44691700       0.56083029       0.95209209 </v>
    <v>       0.55850252       0.44920544       0.04905937 </v>
    <v>       0.44641223       0.88682455       0.95277236 </v>
    <v>       0.55559846       0.77763916       0.04670889 </v>
    <v>       0.77443316       0.21716047       0.95052668 </v>
    <v>       0.88294041       0.10789066       0.04995377 </v>
    <v>       0.77532499       0.55783835       0.95039029 </v>
    <v>       0.88846619       0.44471138       0.05036346 </v>
    <v>       0.77229340       0.88626639       0.95210690 </v>
    <v>       0.88394256       0.77466337       0.04906230 </v>
   </varray>
  </structure>
  <varray name="forces" >
   <v>       0.10191014      -0.25783759      -0.05942793 </v>
   <v>       0.10203212       0.25019531      -0.05829819 </v>
   <v>       0.14852956      -0.00346112       0.00452104 </v>
   <v>       0.03884813      -0.74806258      -0.02678394 </v>
   <v>       0.04166504       0.74535402      -0.02845896 </v>
   <v>       0.35100211       0.00128182       0.04532650 </v>
   <v>       0.01832054      -0.16163970       0.05912411 </v>
   <v>      -0.68666197      -0.00193476      -0.03536125 </v>
   <v>       0.01445915       0.15890913       0.06117620 </v>
   <v>      -0.01043416       0.00058231      -0.70402954 </v>
   <v>      -0.04663959      -0.00051479       0.79403941 </v>
   <v>       0.04723787      -0.00321676      -0.34231976 </v>
   <v>       0.03016322       0.01656346       0.45100411 </v>
   <v>      -0.07523034      -0.01929889      -0.35608212 </v>
   <v>       0.01739125       0.05255175       0.17894432 </v>
   <v>      -0.07353241       0.02136543      -0.35842371 </v>
   <v>       0.01314056      -0.05081212       0.18567819 </v>
   <v>       0.03459694      -0.05784836      -0.22559856 </v>
   <v>      -0.08488269      -0.05471420       0.20757646 </v>
   <v>      -0.04967935      -0.00229336      -0.01555421 </v>
   <v>      -0.01496604      -0.00292601       0.25245101 </v>
   <v>       0.04287778       0.00898679      -0.35413910 </v>
   <v>       0.03357804      -0.01038458       0.46330993 </v>
   <v>      -0.05203206      -0.00072727      -0.38277805 </v>
   <v>       0.10414856       0.00075749       0.26871079 </v>
   <v>       0.03979490       0.06084920      -0.23521196 </v>
   <v>      -0.08563733       0.05827538       0.21060519 </v>
  </varray>
  <varray name="stress" >
   <v>      -5.81485833       0.00334024       0.06443438 </v>
   <v>       0.00334015      -5.54561034       0.00001410 </v>
   <v>       0.06443437       0.00001398       4.53850614 </v>
  </varray>
  <energy>
   <i name="e_fr_energy">   -190.76532752 </i>
   <i name="e_wo_entrp">   -190.66178514 </i>
   <i name="e_0_energy">     -0.20708475 </i>
  </energy>
  <time name="totalsc">  381.99  383.00</time>
 </calculation>
 <calculation>
  <scstep>
   <time name="dav">   21.87   21.93</time>
   <time name="total">   22.38   22.44</time>
   <energy>
    <i name="alphaZ">     90.10256572 </i>
    <i name="ewald">  44627.30302925 </i>
    <i name="hartreedc"> -50669.69210233 </i>
    <i name="XCdc">   -231.91967652 </i>
    <i name="pawpsdc">   4064.58215881 </i>
    <i name="pawaedc">  -3480.47283399 </i>
    <i name="eentropy">     -0.19607481 </i>
    <i name="bandstr">  -1353.23235735 </i>
    <i name="atom">   6761.44252427 </i>
    <i name="e_fr_energy">   -192.08276696 </i>
    <i name="e_wo_entrp">   -191.88669215 </i>
    <i name="e_0_energy">   -191.98472956 </i>
   </energy>
  </scstep>
  <scstep>
   <time name="dav">   28.04   28.10</time>
   <time name="total">   28.54   28.61</time>
   <energy>
    <i name="e_fr_energy">   -191.83685409 </i>
    <i name="e_wo_entrp">   -191.63875647 </i>
    <i name="e_0_energy">   -191.73780528 </i>
   </energy>
  </scstep>
  <scstep>
   <time name="dav">   29.25   29.32</time>
   <time name="total">   29.75   29.83</time>
   <energy>
    <i name="e_fr_energy">   -191.95656991 </i>
    <i name="e_wo_entrp">   -191.74541325 </i>
    <i name="e_0_energy">   -191.85099158 </i>
   </energy>
  </scstep>
  <scstep>
   <time name="dav">   27.69   27.75</time>
   <time name="total">   28.19   28.27</time>
   <energy>
    <i name="e_fr_energy">   -191.77373815 </i>
    <i name="e_wo_entrp">   -191.57311890 </i>
    <i name="e_0_energy">   -191.67342852 </i>
   </energy>
  </scstep>
  <scstep>
   <time name="dav">   30.92   30.99</time>
   <time name="total">   31.43   31.51</time>
   <energy>
    <i name="e_fr_energy">   -191.57141431 </i>
    <i name="e_wo_entrp">   -191.38472023 </i>
    <i name="e_0_energy">   -191.47806727 </i>
   </energy>
  </scstep>
  <scstep>
   <time name="dav">   30.44   30.52</time>
   <time name="total">   30.95   31.03</time>
   <energy>
    <i name="e_fr_energy">   -191.44236255 </i>
    <i name="e_wo_entrp">   -191.23790721 </i>
    <i name="e_0_energy">   -191.34013488 </i>
   </energy>
  </scstep>
  <scstep>
   <time name="dav">   30.35   30.42</time>
   <time name="total">   30.86   30.94</time>
   <energy>
    <i name="e_fr_energy">   -191.42519161 </i>
    <i name="e_wo_entrp">   -191.22174760 </i>
    <i name="e_0_energy">   -191.32346960 </i>
   </energy>
  </scstep>
  <scstep>
   <time name="dav">   27.02   27.08</time>
   <time name="total">   27.52   27.59</time>
   <energy>
    <i name="e_fr_energy">   -191.42032977 </i>
    <i name="e_wo_entrp">   -191.21727347 </i>
    <i name="e_0_energy">   -191.31880162 </i>
   </energy>
  </scstep>
  <scstep>
   <time name="dav">   30.47   30.55</time>
   <time name="total">   30.98   31.06</time>
   <energy>
    <i name="e_fr_energy">   -191.42094677 </i>
    <i name="e_wo_entrp">   -191.21764273 </i>
    <i name="e_0_energy">   -191.31929475 </i>
   </energy>
  </scstep>
  <scstep>
   <time name="dav">   28.56   28.63</time>
   <time name="total">   29.07   29.14</time>
   <energy>
    <i name="e_fr_energy">   -191.42074128 </i>
    <i name="e_wo_entrp">   -191.21714259 </i>
    <i name="e_0_energy">   -191.31894193 </i>
   </energy>
  </scstep>
  <scstep>
   <time name="dav">   26.05   26.11</time>
   <time name="total">   26.56   26.63</time>
   <energy>
    <i name="e_fr_energy">   -191.42045010 </i>
    <i name="e_wo_entrp">   -191.21672142 </i>
    <i name="e_0_energy">   -191.31858576 </i>
   </energy>
  </scstep>
  <scstep>
   <time name="dav">   18.26   18.31</time>
   <time name="total">   18.30   18.35</time>
   <energy>
    <i name="alphaZ">     90.10256572 </i>
    <i name="ewald">  44627.30302925 </i>
    <i name="hartreedc"> -50636.87229868 </i>
    <i name="XCdc">   -233.40029150 </i>
    <i name="pawpsdc">   4085.50540504 </i>
    <i name="pawaedc">  -3501.48841981 </i>
    <i name="eentropy">     -0.20378997 </i>
    <i name="bandstr">  -1383.80913327 </i>
    <i name="atom">   6761.44252427 </i>
    <i name="e_fr_energy">   -191.42040893 </i>
    <i name="e_wo_entrp">   -191.21661897 </i>
    <i name="e_0_energy">   -191.31851395 </i>
   </energy>
  </scstep>
  <structure>
   <crystal>
    <varray name="basis" >
     <v>       8.27329489       4.78644820       0.00000000 </v>
     <v>      -8.27336104       4.78656386       0.00000000 </v>
     <v>       0.00000000       0.00000000      30.00000000 </v>
    </varray>
    <i name="volume">   2376.02005262 </i>
    <varray name="rec_basis" >
     <v>       0.06043590       0.10446075       0.00000000 </v>
     <v>      -0.06043444       0.10445991       0.00000000 </v>
     <v>       0.00000000       0.00000000       0.03333333 </v>
    </varray>
   </crystal>
   <varray name="positions" >
    <v>       0.32907728       0.65834995      -0.00053015 </v>
    <v>       0.67502161       0.00432129      -0.00052543 </v>
    <v>       0.66769356       0.66563257       0.00021269 </v>
    <v>       0.31554150       0.31660331       0.00007404 </v>
    <v>       0.01651998       0.01767879       0.00006411 </v>
    <v>       1.00583570       0.32721877       0.00006402 </v>
    <v>      -0.00261995       0.66390976       0.00033725 </v>
    <v>       0.32440727       0.00889045      -0.00028786 </v>
    <v>       0.66927520       0.33577621       0.00035164 </v>
    <v>       0.11089860       0.22229542       0.94462724 </v>
    <v>       0.22227414       0.11088611       0.05577760 </v>
    <v>       0.11670007       0.55844257       0.94859606 </v>
    <v>       0.22584679       0.45061750       0.05235321 </v>
    <v>       0.11032634       0.88846956       0.94710641 </v>
    <v>       0.22581996       0.77590659       0.05039010 </v>
    <v>       0.44474017       0.22286510       0.94708975 </v>
    <v>       0.55730521       0.10733435       0.05039581 </v>
    <v>       0.44673407       0.56033374       0.95070500 </v>
    <v>       0.55741806       0.44965540       0.05042411 </v>
    <v>       0.44639302       0.88685180       0.95225156 </v>
    <v>       0.55546834       0.77776814       0.04813070 </v>
    <v>       0.77470656       0.21642997       0.94856665 </v>
    <v>       0.88251511       0.10729957       0.05238325 </v>
    <v>       0.77466610       0.55848511       0.94828228 </v>
    <v>       0.88927744       0.44392282       0.05202622 </v>
    <v>       0.77283916       0.88647354       0.95069279 </v>
    <v>       0.88353317       0.77579604       0.05044086 </v>
   </varray>
  </structure>
  <varray name="forces" >
   <v>       0.14624044      -0.20352725       0.01038065 </v>
   <v>       0.14846418       0.19988486       0.00987375 </v>
   <v>       0.10017428       0.00108813       0.02035353 </v>
   <v>       0.01815224      -0.06951198      -0.01718694 </v>
   <v>       0.01998207       0.06801082      -0.00774749 </v>
   <v>      -0.04776470      -0.00060900      -0.04341626 </v>
   <v>       0.06796680      -0.27995344       0.00795322 </v>
   <v>      -0.36932199      -0.00024059       0.10094264 </v>
   <v>       0.07164937       0.27682772       0.00020653 </v>
   <v>      -0.06084005       0.00134218      -0.21587285 </v>
   <v>      -0.04798178      -0.00123073       0.31750133 </v>
   <v>      -0.00039146      -0.11206107      -0.04254963 </v>
   <v>       0.14696705      -0.09277149       0.06677410 </v>
   <v>      -0.12248234      -0.03489974      -0.02601289 </v>
   <v>      -0.08176550       0.06129942      -0.12439886 </v>
   <v>      -0.12326691       0.03528631      -0.02309323 </v>
   <v>      -0.08412346      -0.06107310      -0.12246405 </v>
   <v>       0.13909119      -0.21988935       0.03946853 </v>
   <v>      -0.07921471      -0.21091437      -0.10593667 </v>
   <v>      -0.25309068       0.00039867       0.21248940 </v>
   <v>       0.00915331      -0.00029747      -0.01626779 </v>
   <v>      -0.00256305       0.11543453      -0.03924394 </v>
   <v>       0.14802652       0.09585989       0.06336953 </v>
   <v>       0.03116829       0.00013796      -0.10478629 </v>
   <v>       0.16310788       0.00005707       0.11018432 </v>
   <v>       0.13922838       0.22104359       0.03875180 </v>
   <v>      -0.07656534       0.21030844      -0.10927242 </v>
  </varray>
  <varray name="stress" >
   <v>      -0.18321247      -0.00646883       0.37686830 </v>
   <v>      -0.00646892       0.51483558      -0.00584373 </v>
   <v>       0.37686851      -0.00584389      -0.82556375 </v>
  </varray>
  <energy>
   <i name="e_fr_energy">   -191.42040893 </i>
   <i name="e_wo_entrp">   -191.31851395 </i>
   <i name="e_0_energy">     -0.20378997 </i>
  </energy>
  <time name="totalsc">  376.43  377.40</time>
 </calculation>
 <calculation>
  <scstep>
   <time name="dav">   21.86   21.91</time>
   <time name="total">   22.36   22.42</time>
   <energy>
    <i name="alphaZ">     90.01829996 </i>
    <i name="ewald">  44574.71922699 </i>
    <i name="hartreedc"> -50584.17700729 </i>
    <i name="XCdc">   -233.51956593 </i>
    <i name="pawpsdc">   4085.30620681 </i>
    <i name="pawaedc">  -3501.28266702 </i>
    <i name="eentropy">     -0.20622321 </i>
    <i name="bandstr">  -1383.76502259 </i>
    <i name="atom">   6761.44252427 </i>
    <i name="e_fr_energy">   -191.46422800 </i>
    <i name="e_wo_entrp">   -191.25800479 </i>
    <i name="e_0_energy">   -191.36111640 </i>
   </energy>
  </scstep>
  <scstep>
   <time name="dav">   33.07   33.15</time>
   <time name="total">   33.58   33.66</time>
   <energy>
    <i name="e_fr_energy">   -191.50210647 </i>
    <i name="e_wo_entrp">   -191.28756925 </i>
    <i name="e_0_energy">   -191.39483786 </i>
   </energy>
  </scstep>
  <scstep>
   <time name="dav">   30.85   30.92</time>
   <time name="total">   31.36   31.65</time>
   <energy>
    <i name="e_fr_energy">   -191.47599668 </i>
    <i name="e_wo_entrp">   -191.26950158 </i>
    <i name="e_0_energy">   -191.37274913 </i>
   </energy>
  </scstep>
  <scstep>
   <time name="dav">   28.19   28.26</time>
   <time name="total">   28.69   28.77</time>
   <energy>
    <i name="e_fr_energy">   -191.47708928 </i>
    <i name="e_wo_entrp">   -191.27075864 </i>
    <i name="e_0_energy">   -191.37392396 </i>
   </energy>
  </scstep>
  <scstep>
   <time name="dav">   26.49   26.55</time>
   <time name="total">   26.99   27.06</time>
   <energy>
    <i name="e_fr_energy">   -191.47398341 </i>
    <i name="e_wo_entrp">   -191.26603613 </i>
    <i name="e_0_energy">   -191.37000977 </i>
   </energy>
  </scstep>
  <scstep>
   <time name="dav">   27.93   28.00</time>
   <time name="total">   28.44   28.51</time>
   <energy>
    <i name="e_fr_energy">   -191.47388582 </i>
    <i name="e_wo_entrp">   -191.26664137 </i>
    <i name="e_0_energy">   -191.37026360 </i>
   </energy>
  </scstep>
  <scstep>
   <time name="dav">   25.91   25.97</time>
   <time name="total">   26.42   26.48</time>
   <energy>
    <i name="e_fr_energy">   -191.47361749 </i>
    <i name="e_wo_entrp">   -191.26631117 </i>
    <i name="e_0_energy">   -191.36996433 </i>
   </energy>
  </scstep>
  <scstep>
   <time name="dav">   18.90   18.94</time>
   <time name="total">   18.93   18.99</time>
   <energy>
    <i name="alphaZ">     90.01829996 </i>
    <i name="ewald">  44574.71922699 </i>
    <i name="hartreedc"> -50585.74330735 </i>
    <i name="XCdc">   -233.47588583 </i>
    <i name="pawpsdc">   4082.19472794 </i>
    <i name="pawaedc">  -3498.13081350 </i>
    <i name="eentropy">     -0.20732839 </i>
    <i name="bandstr">  -1382.29107659 </i>
    <i name="atom">   6761.44252427 </i>
    <i name="e_fr_energy">   -191.47363249 </i>
    <i name="e_wo_entrp">   -191.26630409 </i>
    <i name="e_0_energy">   -191.36996829 </i>
   </energy>
  </scstep>
  <structure>
   <crystal>
    <varray name="basis" >
     <v>       8.26947664       4.79295216       0.00000000 </v>
     <v>      -8.26970630       4.79335064       0.00000000 </v>
     <v>       0.00000000       0.00000000      30.00000000 </v>
    </varray>
    <i name="volume">   2378.24423505 </i>
    <varray name="rec_basis" >
     <v>       0.06046499       0.10431695       0.00000000 </v>
     <v>      -0.06045997       0.10431405       0.00000000 </v>
     <v>       0.00000000       0.00000000       0.03333333 </v>
    </varray>
   </crystal>
   <varray name="positions" >
    <v>       0.32848605       0.65691175      -0.00051294 </v>
    <v>       0.67644801       0.00488778      -0.00050904 </v>
    <v>       0.66798744       0.66534969       0.00024521 </v>
    <v>       0.31526517       0.31622322       0.00004676 </v>
    <v>       0.01689809       0.01794239       0.00005197 </v>
    <v>       1.00568856       0.32736011      -0.00000593 </v>
    <v>      -0.00382410       0.66231111       0.00034937 </v>
    <v>       0.32334396       0.00995132      -0.00012572 </v>
    <v>       0.67086901       0.33695415       0.00035133 </v>
    <v>       0.11072866       0.22247878       0.94428995 </v>
    <v>       0.22212961       0.11101828       0.05627698 </v>
    <v>       0.11613381       0.55788142       0.94853293 </v>
    <v>       0.22580624       0.44972300       0.05245408 </v>
    <v>       0.10979733       0.88864920       0.94707020 </v>
    <v>       0.22588753       0.77645181       0.05018710 </v>
    <v>       0.44456011       0.22339826       0.94705824 </v>
    <v>       0.55675420       0.10727474       0.05019588 </v>
    <v>       0.44603405       0.55882608       0.95077200 </v>
    <v>       0.55613107       0.44882477       0.05025059 </v>
    <v>       0.44565933       0.88758936       0.95259383 </v>
    <v>       0.55549371       0.77773969       0.04810090 </v>
    <v>       0.77527831       0.21701940       0.94850889 </v>
    <v>       0.88342814       0.10735252       0.05247859 </v>
    <v>       0.77475919       0.55839342       0.94811988 </v>
    <v>       0.88974965       0.44345113       0.05219823 </v>
    <v>       0.77435296       0.88717887       0.95075869 </v>
    <v>       0.88436837       0.77707217       0.05026197 </v>
   </varray>
  </structure>
  <varray name="forces" >
   <v>       0.18921481      -0.20486972       0.00057360 </v>
   <v>       0.18963958       0.19399860       0.00098901 </v>
   <v>       0.06100607      -0.00190153       0.04475467 </v>
   <v>      -0.02803550      -0.21297618      -0.02078031 </v>
   <v>      -0.02300826       0.21330279      -0.02492225 </v>
   <v>      -0.05754355       0.00649404      -0.03948860 </v>
   <v>       0.09753556      -0.29763192       0.00532478 </v>
   <v>      -0.38440905      -0.00085728      -0.00759774 </v>
   <v>       0.09455481       0.29720505       0.00574190 </v>
   <v>      -0.03037029      -0.00120005      -0.08016869 </v>
   <v>      -0.08581808       0.00120444       0.19383745 </v>
   <v>      -0.00108622      -0.05877979      -0.04044902 </v>
   <v>       0.06504400      -0.05897847       0.04939480 </v>
   <v>      -0.04582061      -0.03254877       0.04758786 </v>
   <v>      -0.06088617       0.01878792      -0.13287216 </v>
   <v>      -0.04549029       0.03260913       0.04606826 </v>
   <v>      -0.06426494      -0.01742349      -0.13102988 </v>
   <v>       0.08519317      -0.11662584       0.02492958 </v>
   <v>      -0.03400357      -0.10513466      -0.10235875 </v>
   <v>      -0.15804867      -0.00160027       0.26168510 </v>
   <v>       0.00988763      -0.00128060      -0.06445405 </v>
   <v>      -0.00257487       0.06206090      -0.04128410 </v>
   <v>       0.06568460       0.06290435       0.05067512 </v>
   <v>       0.02210718       0.00056441      -0.10214218 </v>
   <v>       0.08708834      -0.00046745       0.13356635 </v>
   <v>       0.08775240       0.11802197       0.02314550 </v>
   <v>      -0.03334812       0.10512241      -0.10072625 </v>
  </varray>
  <varray name="stress" >
   <v>      -0.06126000       0.00478127       0.02544573 </v>
   <v>       0.00478151      -0.20504950       0.00419162 </v>
   <v>       0.02544558       0.00419162      -1.49108274 </v>
  </varray>
  <energy>
   <i name="e_fr_energy">   -191.47363249 </i>
   <i name="e_wo_entrp">   -191.36996829 </i>
   <i name="e_0_energy">     -0.20732839 </i>
  </energy>
  <time name="totalsc">  258.97  259.85</time>
 </calculation>
 <calculation>
  <scstep>
   <time name="dav">   21.86   21.91</time>
   <time name="total">   22.37   22.42</time>
   <energy>
    <i name="alphaZ">     90.11046559 </i>
    <i name="ewald">  44624.42284701 </i>
    <i name="hartreedc"> -50636.11011999 </i>
    <i name="XCdc">   -233.38543693 </i>
    <i name="pawpsdc">   4082.12693861 </i>
    <i name="pawaedc">  -3498.06228959 </i>
    <i name="eentropy">     -0.20897331 </i>
    <i name="bandstr">  -1381.85435668 </i>
    <i name="atom">   6761.44252427 </i>
    <i name="e_fr_energy">   -191.51840102 </i>
    <i name="e_wo_entrp">   -191.30942771 </i>
    <i name="e_0_energy">   -191.41391436 </i>
   </energy>
  </scstep>
  <scstep>
   <time name="dav">   33.08   33.16</time>
   <time name="total">   33.58   33.67</time>
   <energy>
    <i name="e_fr_energy">   -191.53801017 </i>
    <i name="e_wo_entrp">   -191.32148557 </i>
    <i name="e_0_energy">   -191.42974787 </i>
   </energy>
  </scstep>
  <scstep>
   <time name="dav">   30.64   30.71</time>
   <time name="total">   31.14   31.22</time>
   <energy>
    <i name="e_fr_energy">   -191.52555628 </i>
    <i name="e_wo_entrp">   -191.31701532 </i>
    <i name="e_0_energy">   -191.42128580 </i>
   </energy>
  </scstep>
  <scstep>
   <time name="dav">   28.57   28.64</time>
   <time name="total">   29.07   29.15</time>
   <energy>
    <i name="e_fr_energy">   -191.52543093 </i>
    <i name="e_wo_entrp">   -191.31640886 </i>
    <i name="e_0_energy">   -191.42091990 </i>
   </energy>
  </scstep>
  <scstep>
   <time name="dav">   26.66   26.72</time>
   <time name="total">   27.16   27.24</time>
   <energy>
    <i name="e_fr_energy">   -191.52333575 </i>
    <i name="e_wo_entrp">   -191.31280907 </i>
    <i name="e_0_energy">   -191.41807241 </i>
   </energy>
  </scstep>
  <scstep>
   <time name="dav">   26.50   26.56</time>
   <time name="total">   27.00   27.07</time>
   <energy>
    <i name="e_fr_energy">   -191.52306507 </i>
    <i name="e_wo_entrp">   -191.31308406 </i>
    <i name="e_0_energy">   -191.41807456 </i>
   </energy>
  </scstep>
  <scstep>
   <time name="dav">   25.98   26.04</time>
   <time name="total">   26.49   26.56</time>
   <energy>
    <i name="e_fr_energy">   -191.52295473 </i>
    <i name="e_wo_entrp">   -191.31267373 </i>
    <i name="e_0_energy">   -191.41781423 </i>
   </energy>
  </scstep>
  <scstep>
   <time name="dav">   22.11   22.16</time>
   <time name="total">   22.61   22.67</time>
   <energy>
    <i name="e_fr_energy">   -191.52285322 </i>
    <i name="e_wo_entrp">   -191.31259858 </i>
    <i name="e_0_energy">   -191.41772590 </i>
   </energy>
  </scstep>
  <scstep>
   <time name="dav">   17.18   17.22</time>
   <time name="total">   17.22   17.27</time>
   <energy>
    <i name="alphaZ">     90.11046559 </i>
    <i name="ewald">  44624.42284701 </i>
    <i name="hartreedc"> -50636.00819864 </i>
    <i name="XCdc">   -233.39593638 </i>
[...]
      <set comment="kpoint 31">
       <r>  -17.5174    1.0000 </r>
       <r>  -17.3098    1.0000 </r>
       <r>  -16.8867    1.0000 </r>
       <r>  -16.6278    1.0000 </r>
       <r>  -16.5303    1.0000 </r>
       <r>  -16.4566    1.0000 </r>
       <r>  -16.2833    1.0000 </r>
       <r>  -16.2272    1.0000 </r>
       <r>  -16.1600    1.0000 </r>
       <r>  -16.0370    1.0000 </r>
       <r>  -15.9467    1.0000 </r>
       <r>  -15.8959    1.0000 </r>
       <r>  -15.7244    1.0000 </r>
       <r>  -15.6839    1.0000 </r>
       <r>  -15.5902    1.0000 </r>
       <r>  -15.5542    1.0000 </r>
       <r>  -15.4030    1.0000 </r>
       <r>  -15.1961    1.0000 </r>
       <r>   -9.7778    1.0000 </r>
       <r>   -9.4689    1.0000 </r>
       <r>   -9.3032    1.0000 </r>
       <r>   -8.9501    1.0000 </r>
       <r>   -8.8289    1.0000 </r>
       <r>   -8.7755    1.0000 </r>
       <r>   -8.5968    1.0000 </r>
       <r>   -8.5401    1.0000 </r>
       <r>   -8.4526    1.0000 </r>
       <r>   -8.3465    1.0000 </r>
       <r>   -8.2351    1.0000 </r>
       <r>   -8.2025    1.0000 </r>
       <r>   -8.0694    1.0000 </r>
       <r>   -8.0369    1.0000 </r>
       <r>   -7.9871    1.0000 </r>
       <r>   -7.9146    1.0000 </r>
       <r>   -7.7720    1.0000 </r>
       <r>   -7.7458    1.0000 </r>
       <r>   -7.5683    1.0000 </r>
       <r>   -7.4341    1.0000 </r>
       <r>   -7.3819    1.0000 </r>
       <r>   -7.2279    1.0000 </r>
       <r>   -7.1415    1.0000 </r>
       <r>   -7.0631    1.0000 </r>
       <r>   -7.0142    1.0000 </r>
       <r>   -6.9422    1.0000 </r>
       <r>   -6.8502    1.0000 </r>
       <r>   -6.7882    1.0000 </r>
       <r>   -6.6742    1.0000 </r>
       <r>   -6.6237    1.0000 </r>
       <r>   -6.5565    1.0000 </r>
       <r>   -6.4729    1.0000 </r>
       <r>   -6.4107    1.0000 </r>
       <r>   -6.3669    1.0000 </r>
       <r>   -6.3184    1.0000 </r>
       <r>   -6.2256    1.0000 </r>
       <r>   -6.1083    1.0000 </r>
       <r>   -6.0657    1.0000 </r>
       <r>   -5.9942    1.0000 </r>
       <r>   -5.9196    1.0000 </r>
       <r>   -5.8734    1.0000 </r>
       <r>   -5.8201    1.0000 </r>
       <r>   -5.7193    1.0000 </r>
       <r>   -5.5716    1.0000 </r>
       <r>   -5.4926    1.0000 </r>
       <r>   -5.3997    1.0000 </r>
       <r>   -5.3381    1.0000 </r>
       <r>   -5.1278    1.0000 </r>
       <r>   -5.0958    1.0000 </r>
       <r>   -4.8918    1.0000 </r>
       <r>   -4.7842    1.0000 </r>
       <r>   -4.7308    1.0000 </r>
       <r>   -4.5663    1.0000 </r>
       <r>   -4.4806    1.0000 </r>
       <r>   -4.3060    1.0000 </r>
       <r>   -4.2719    1.0000 </r>
       <r>   -4.0375    1.0000 </r>
       <r>   -4.0038    1.0000 </r>
       <r>   -3.8498    1.0000 </r>
       <r>   -3.5949    0.9908 </r>
       <r>   -3.5260    0.9694 </r>
       <r>   -3.4087    0.8514 </r>
       <r>   -3.0086    0.0370 </r>
       <r>   -2.7992    0.0005 </r>
       <r>   -2.6602    0.0000 </r>
       <r>   -2.5615    0.0000 </r>
       <r>   -2.5199    0.0000 </r>
       <r>   -2.4405    0.0000 </r>
       <r>   -2.2555    0.0000 </r>
       <r>   -2.1537    0.0000 </r>
       <r>   -2.0256    0.0000 </r>
       <r>   -1.8596    0.0000 </r>
       <r>   -1.7135    0.0000 </r>
       <r>   -1.6631    0.0000 </r>
       <r>   -1.4769    0.0000 </r>
       <r>   -1.3497    0.0000 </r>
       <r>   -1.2353    0.0000 </r>
       <r>   -1.1586    0.0000 </r>
       <r>   -1.1038    0.0000 </r>
       <r>   -1.0536    0.0000 </r>
       <r>   -0.9590    0.0000 </r>
       <r>   -0.9340    0.0000 </r>
       <r>   -0.8185    0.0000 </r>
       <r>   -0.7430    0.0000 </r>
       <r>   -0.6411    0.0000 </r>
       <r>   -0.5579    0.0000 </r>
       <r>   -0.4370    0.0000 </r>
       <r>   -0.3992    0.0000 </r>
       <r>   -0.2346    0.0000 </r>
       <r>   -0.1247    0.0000 </r>
       <r>   -0.0428    0.0000 </r>
       <r>    0.1717    0.0000 </r>
       <r>    0.3221    0.0000 </r>
       <r>    0.4494    0.0000 </r>
       <r>    0.7907    0.0000 </r>
       <r>    1.0006    0.0000 </r>
       <r>    1.1270    0.0000 </r>
       <r>    1.3051    0.0000 </r>
       <r>    1.4144    0.0000 </r>
       <r>    2.1275    0.0000 </r>
       <r>    2.2912    0.0000 </r>
       <r>    2.3814    0.0000 </r>
      </set>
      <set comment="kpoint 32">
       <r>  -17.5469    1.0000 </r>
       <r>  -17.2225    1.0000 </r>
       <r>  -16.9952    1.0000 </r>
       <r>  -16.6264    1.0000 </r>
       <r>  -16.5099    1.0000 </r>
       <r>  -16.3624    1.0000 </r>
       <r>  -16.2858    1.0000 </r>
       <r>  -16.2181    1.0000 </r>
       <r>  -16.1878    1.0000 </r>
       <r>  -16.0475    1.0000 </r>
       <r>  -16.0080    1.0000 </r>
       <r>  -15.8964    1.0000 </r>
       <r>  -15.7143    1.0000 </r>
       <r>  -15.6906    1.0000 </r>
       <r>  -15.5849    1.0000 </r>
       <r>  -15.5356    1.0000 </r>
       <r>  -15.3972    1.0000 </r>
       <r>  -15.2006    1.0000 </r>
       <r>   -9.7148    1.0000 </r>
       <r>   -9.5877    1.0000 </r>
       <r>   -9.3382    1.0000 </r>
       <r>   -8.9411    1.0000 </r>
       <r>   -8.7550    1.0000 </r>
       <r>   -8.6663    1.0000 </r>
       <r>   -8.5634    1.0000 </r>
       <r>   -8.4907    1.0000 </r>
       <r>   -8.4413    1.0000 </r>
       <r>   -8.3707    1.0000 </r>
       <r>   -8.2592    1.0000 </r>
       <r>   -8.2200    1.0000 </r>
       <r>   -8.1535    1.0000 </r>
       <r>   -8.0526    1.0000 </r>
       <r>   -8.0246    1.0000 </r>
       <r>   -7.9372    1.0000 </r>
       <r>   -7.8436    1.0000 </r>
       <r>   -7.7075    1.0000 </r>
       <r>   -7.5510    1.0000 </r>
       <r>   -7.4689    1.0000 </r>
       <r>   -7.3531    1.0000 </r>
       <r>   -7.2533    1.0000 </r>
       <r>   -7.1748    1.0000 </r>
       <r>   -7.0479    1.0000 </r>
       <r>   -6.9816    1.0000 </r>
       <r>   -6.9228    1.0000 </r>
       <r>   -6.8940    1.0000 </r>
       <r>   -6.7220    1.0000 </r>
       <r>   -6.6629    1.0000 </r>
       <r>   -6.6331    1.0000 </r>
       <r>   -6.5766    1.0000 </r>
       <r>   -6.4792    1.0000 </r>
       <r>   -6.4396    1.0000 </r>
       <r>   -6.3782    1.0000 </r>
       <r>   -6.2840    1.0000 </r>
       <r>   -6.2150    1.0000 </r>
       <r>   -6.1352    1.0000 </r>
       <r>   -6.0597    1.0000 </r>
       <r>   -5.9766    1.0000 </r>
       <r>   -5.9058    1.0000 </r>
       <r>   -5.8513    1.0000 </r>
       <r>   -5.7249    1.0000 </r>
       <r>   -5.6669    1.0000 </r>
       <r>   -5.5389    1.0000 </r>
       <r>   -5.4870    1.0000 </r>
       <r>   -5.4203    1.0000 </r>
       <r>   -5.3006    1.0000 </r>
       <r>   -5.2088    1.0000 </r>
       <r>   -5.0392    1.0000 </r>
       <r>   -4.9398    1.0000 </r>
       <r>   -4.8378    1.0000 </r>
       <r>   -4.7546    1.0000 </r>
       <r>   -4.6456    1.0000 </r>
       <r>   -4.5045    1.0000 </r>
       <r>   -4.3231    1.0000 </r>
       <r>   -4.2635    1.0000 </r>
       <r>   -4.0486    1.0000 </r>
       <r>   -4.0308    1.0000 </r>
       <r>   -3.8567    1.0000 </r>
       <r>   -3.6461    0.9967 </r>
       <r>   -3.4610    0.9211 </r>
       <r>   -3.2831    0.5612 </r>
       <r>   -3.0215    0.0450 </r>
       <r>   -2.7870    0.0004 </r>
       <r>   -2.6496    0.0000 </r>
       <r>   -2.5775    0.0000 </r>
       <r>   -2.5261    0.0000 </r>
       <r>   -2.4521    0.0000 </r>
       <r>   -2.2686    0.0000 </r>
       <r>   -2.1138    0.0000 </r>
       <r>   -2.0264    0.0000 </r>
       <r>   -1.9081    0.0000 </r>
       <r>   -1.7316    0.0000 </r>
       <r>   -1.7078    0.0000 </r>
       <r>   -1.4527    0.0000 </r>
       <r>   -1.3458    0.0000 </r>
       <r>   -1.2293    0.0000 </r>
       <r>   -1.1400    0.0000 </r>
       <r>   -1.1019    0.0000 </r>
       <r>   -1.0376    0.0000 </r>
       <r>   -0.9771    0.0000 </r>
       <r>   -0.9397    0.0000 </r>
       <r>   -0.8470    0.0000 </r>
       <r>   -0.7340    0.0000 </r>
       <r>   -0.6258    0.0000 </r>
       <r>   -0.5355    0.0000 </r>
       <r>   -0.4468    0.0000 </r>
       <r>   -0.3636    0.0000 </r>
       <r>   -0.2260    0.0000 </r>
       <r>   -0.1151    0.0000 </r>
       <r>   -0.0238    0.0000 </r>
       <r>    0.1372    0.0000 </r>
       <r>    0.3948    0.0000 </r>
       <r>    0.4327    0.0000 </r>
       <r>    0.8345    0.0000 </r>
       <r>    0.9413    0.0000 </r>
       <r>    1.1021    0.0000 </r>
       <r>    1.3226    0.0000 </r>
       <r>    1.3593    0.0000 </r>
       <r>    2.0963    0.0000 </r>
       <r>    2.2589    0.0000 </r>
       <r>    2.5633    0.0000 </r>
      </set>
      <set comment="kpoint 33">
       <r>  -17.5489    1.0000 </r>
       <r>  -17.2572    1.0000 </r>
       <r>  -16.9030    1.0000 </r>
       <r>  -16.6280    1.0000 </r>
       <r>  -16.5314    1.0000 </r>
       <r>  -16.4731    1.0000 </r>
       <r>  -16.2644    1.0000 </r>
       <r>  -16.2147    1.0000 </r>
       <r>  -16.1717    1.0000 </r>
       <r>  -16.0445    1.0000 </r>
       <r>  -15.9683    1.0000 </r>
       <r>  -15.8827    1.0000 </r>
       <r>  -15.7107    1.0000 </r>
       <r>  -15.6839    1.0000 </r>
       <r>  -15.5967    1.0000 </r>
       <r>  -15.5537    1.0000 </r>
       <r>  -15.3917    1.0000 </r>
       <r>  -15.2060    1.0000 </r>
       <r>   -9.7773    1.0000 </r>
       <r>   -9.4833    1.0000 </r>
       <r>   -9.2754    1.0000 </r>
       <r>   -8.9762    1.0000 </r>
       <r>   -8.8352    1.0000 </r>
       <r>   -8.7048    1.0000 </r>
       <r>   -8.6632    1.0000 </r>
       <r>   -8.5632    1.0000 </r>
       <r>   -8.4048    1.0000 </r>
       <r>   -8.3034    1.0000 </r>
       <r>   -8.2649    1.0000 </r>
       <r>   -8.1876    1.0000 </r>
       <r>   -8.0713    1.0000 </r>
       <r>   -8.0655    1.0000 </r>
       <r>   -7.9551    1.0000 </r>
       <r>   -7.9014    1.0000 </r>
       <r>   -7.8266    1.0000 </r>
       <r>   -7.7161    1.0000 </r>
       <r>   -7.5793    1.0000 </r>
       <r>   -7.5443    1.0000 </r>
       <r>   -7.3959    1.0000 </r>
       <r>   -7.2910    1.0000 </r>
       <r>   -7.1298    1.0000 </r>
       <r>   -7.0128    1.0000 </r>
       <r>   -6.9390    1.0000 </r>
       <r>   -6.8895    1.0000 </r>
       <r>   -6.8569    1.0000 </r>
       <r>   -6.7805    1.0000 </r>
       <r>   -6.7188    1.0000 </r>
       <r>   -6.6139    1.0000 </r>
       <r>   -6.5919    1.0000 </r>
       <r>   -6.4922    1.0000 </r>
       <r>   -6.4480    1.0000 </r>
       <r>   -6.3464    1.0000 </r>
       <r>   -6.2541    1.0000 </r>
       <r>   -6.1884    1.0000 </r>
       <r>   -6.0992    1.0000 </r>
       <r>   -6.0533    1.0000 </r>
       <r>   -5.9963    1.0000 </r>
       <r>   -5.9306    1.0000 </r>
       <r>   -5.8691    1.0000 </r>
       <r>   -5.7949    1.0000 </r>
       <r>   -5.6348    1.0000 </r>
       <r>   -5.5745    1.0000 </r>
       <r>   -5.5306    1.0000 </r>
       <r>   -5.3992    1.0000 </r>
       <r>   -5.2714    1.0000 </r>
       <r>   -5.1796    1.0000 </r>
       <r>   -5.0642    1.0000 </r>
       <r>   -4.9203    1.0000 </r>
       <r>   -4.7945    1.0000 </r>
       <r>   -4.7259    1.0000 </r>
       <r>   -4.5992    1.0000 </r>
       <r>   -4.5210    1.0000 </r>
       <r>   -4.3818    1.0000 </r>
       <r>   -4.2358    1.0000 </r>
       <r>   -4.1253    1.0000 </r>
       <r>   -4.0536    1.0000 </r>
       <r>   -3.8962    1.0000 </r>
       <r>   -3.6794    0.9984 </r>
       <r>   -3.4699    0.9299 </r>
       <r>   -3.1082    0.1395 </r>
       <r>   -3.0323    0.0527 </r>
       <r>   -2.7768    0.0003 </r>
       <r>   -2.6877    0.0000 </r>
       <r>   -2.5926    0.0000 </r>
       <r>   -2.5497    0.0000 </r>
       <r>   -2.4695    0.0000 </r>
       <r>   -2.2554    0.0000 </r>
       <r>   -2.0891    0.0000 </r>
       <r>   -2.0178    0.0000 </r>
       <r>   -1.9222    0.0000 </r>
       <r>   -1.7496    0.0000 </r>
       <r>   -1.7105    0.0000 </r>
       <r>   -1.4200    0.0000 </r>
       <r>   -1.3281    0.0000 </r>
       <r>   -1.2579    0.0000 </r>
       <r>   -1.1612    0.0000 </r>
       <r>   -1.0879    0.0000 </r>
       <r>   -1.0532    0.0000 </r>
       <r>   -0.9843    0.0000 </r>
       <r>   -0.9225    0.0000 </r>
       <r>   -0.8395    0.0000 </r>
       <r>   -0.7280    0.0000 </r>
       <r>   -0.6391    0.0000 </r>
       <r>   -0.5513    0.0000 </r>
       <r>   -0.4642    0.0000 </r>
       <r>   -0.3905    0.0000 </r>
       <r>   -0.2374    0.0000 </r>
       <r>   -0.0596    0.0000 </r>
       <r>    0.0023    0.0000 </r>
       <r>    0.1572    0.0000 </r>
       <r>    0.3717    0.0000 </r>
       <r>    0.5215    0.0000 </r>
       <r>    0.7952    0.0000 </r>
       <r>    0.9555    0.0000 </r>
       <r>    1.1064    0.0000 </r>
       <r>    1.2570    0.0000 </r>
       <r>    1.4013    0.0000 </r>
       <r>    2.1276    0.0000 </r>
       <r>    2.2906    0.0000 </r>
       <r>    2.3882    0.0000 </r>
      </set>
      <set comment="kpoint 34">
       <r>  -17.5428    1.0000 </r>
       <r>  -17.2944    1.0000 </r>
       <r>  -16.7369    1.0000 </r>
       <r>  -16.6966    1.0000 </r>
       <r>  -16.6182    1.0000 </r>
       <r>  -16.4962    1.0000 </r>
       <r>  -16.2639    1.0000 </r>
       <r>  -16.2014    1.0000 </r>
       <r>  -16.1775    1.0000 </r>
       <r>  -16.0434    1.0000 </r>
       <r>  -15.9330    1.0000 </r>
       <r>  -15.8581    1.0000 </r>
       <r>  -15.7060    1.0000 </r>
       <r>  -15.6750    1.0000 </r>
       <r>  -15.6190    1.0000 </r>
       <r>  -15.5707    1.0000 </r>
       <r>  -15.3894    1.0000 </r>
       <r>  -15.2084    1.0000 </r>
       <r>   -9.8138    1.0000 </r>
       <r>   -9.3570    1.0000 </r>
       <r>   -9.2330    1.0000 </r>
       <r>   -9.0496    1.0000 </r>
       <r>   -8.8801    1.0000 </r>
       <r>   -8.8066    1.0000 </r>
       <r>   -8.6991    1.0000 </r>
       <r>   -8.5790    1.0000 </r>
       <r>   -8.3889    1.0000 </r>
       <r>   -8.2871    1.0000 </r>
       <r>   -8.2383    1.0000 </r>
       <r>   -8.1946    1.0000 </r>
       <r>   -8.0695    1.0000 </r>
       <r>   -8.0190    1.0000 </r>
       <r>   -7.9176    1.0000 </r>
       <r>   -7.8314    1.0000 </r>
       <r>   -7.7867    1.0000 </r>
       <r>   -7.6847    1.0000 </r>
       <r>   -7.6403    1.0000 </r>
       <r>   -7.5749    1.0000 </r>
       <r>   -7.4334    1.0000 </r>
       <r>   -7.3518    1.0000 </r>
       <r>   -7.0536    1.0000 </r>
       <r>   -7.0364    1.0000 </r>
       <r>   -6.9268    1.0000 </r>
       <r>   -6.8836    1.0000 </r>
       <r>   -6.8244    1.0000 </r>
       <r>   -6.7745    1.0000 </r>
       <r>   -6.7176    1.0000 </r>
       <r>   -6.6379    1.0000 </r>
       <r>   -6.5730    1.0000 </r>
       <r>   -6.4773    1.0000 </r>
       <r>   -6.4609    1.0000 </r>
       <r>   -6.4058    1.0000 </r>
       <r>   -6.2909    1.0000 </r>
       <r>   -6.1278    1.0000 </r>
       <r>   -6.0591    1.0000 </r>
       <r>   -6.0057    1.0000 </r>
       <r>   -5.9972    1.0000 </r>
       <r>   -5.9467    1.0000 </r>
       <r>   -5.8905    1.0000 </r>
       <r>   -5.8302    1.0000 </r>
       <r>   -5.7253    1.0000 </r>
       <r>   -5.6309    1.0000 </r>
       <r>   -5.5229    1.0000 </r>
       <r>   -5.3964    1.0000 </r>
       <r>   -5.2799    1.0000 </r>
       <r>   -5.1251    1.0000 </r>
       <r>   -5.0195    1.0000 </r>
       <r>   -4.8991    1.0000 </r>
       <r>   -4.8600    1.0000 </r>
       <r>   -4.6203    1.0000 </r>
       <r>   -4.5337    1.0000 </r>
       <r>   -4.5045    1.0000 </r>
       <r>   -4.4211    1.0000 </r>
       <r>   -4.2690    1.0000 </r>
       <r>   -4.1778    1.0000 </r>
       <r>   -4.0629    1.0000 </r>
       <r>   -3.9174    1.0000 </r>
       <r>   -3.6889    0.9988 </r>
       <r>   -3.4797    0.9387 </r>
       <r>   -3.0493    0.0670 </r>
       <r>   -3.0001    0.0324 </r>
       <r>   -2.7780    0.0003 </r>
       <r>   -2.7456    0.0001 </r>
       <r>   -2.5892    0.0000 </r>
       <r>   -2.5590    0.0000 </r>
       <r>   -2.4771    0.0000 </r>
       <r>   -2.2424    0.0000 </r>
       <r>   -2.0907    0.0000 </r>
       <r>   -2.0085    0.0000 </r>
       <r>   -1.9173    0.0000 </r>
       <r>   -1.7496    0.0000 </r>
       <r>   -1.7065    0.0000 </r>
       <r>   -1.4098    0.0000 </r>
       <r>   -1.3156    0.0000 </r>
       <r>   -1.2628    0.0000 </r>
       <r>   -1.1935    0.0000 </r>
       <r>   -1.0843    0.0000 </r>
       <r>   -1.0598    0.0000 </r>
       <r>   -0.9748    0.0000 </r>
       <r>   -0.9042    0.0000 </r>
       <r>   -0.8297    0.0000 </r>
       <r>   -0.7201    0.0000 </r>
       <r>   -0.6863    0.0000 </r>
       <r>   -0.5531    0.0000 </r>
       <r>   -0.4925    0.0000 </r>
       <r>   -0.4118    0.0000 </r>
       <r>   -0.2194    0.0000 </r>
       <r>   -0.0473    0.0000 </r>
       <r>    0.0166    0.0000 </r>
       <r>    0.2092    0.0000 </r>
       <r>    0.3209    0.0000 </r>
       <r>    0.6024    0.0000 </r>
       <r>    0.7208    0.0000 </r>
       <r>    1.0048    0.0000 </r>
       <r>    1.1174    0.0000 </r>
       <r>    1.2099    0.0000 </r>
       <r>    1.4295    0.0000 </r>
       <r>    2.2083    0.0000 </r>
       <r>    2.2396    0.0000 </r>
       <r>    2.3904    0.0000 </r>
      </set>
     </set>
    </set>
   </array>
  </eigenvalues>
  <separator name="orbital magnetization" >
   <v name="MAGDIPOLOUT">      0.00000000      0.00000000      0.00000000</v>
  </separator>
 </calculation>
 <structure name="finalpos" >
  <crystal>
   <varray name="basis" >
    <v>       8.35493991       4.84176334       0.00000000 </v>
    <v>      -8.34311489       4.82169052       0.00000000 </v>
    <v>       0.00000000       0.00000000      30.00000000 </v>
   </varray>
   <i name="volume">   2420.40966993 </i>
   <varray name="rec_basis" >
    <v>       0.05976291       0.10340954       0.00000000 </v>
    <v>      -0.06001170       0.10355610       0.00000000 </v>
    <v>       0.00000000       0.00000000       0.03333333 </v>
   </varray>
  </crystal>
  <varray name="positions" >
   <v>       0.32165998       0.63460299      -0.00062434 </v>
   <v>       0.69742162       0.01826873      -0.00114963 </v>
   <v>       0.68272957       0.68946105       0.00115554 </v>
   <v>       0.29608275       0.31126984       0.00112982 </v>
   <v>       0.00557801       0.02358541      -0.00012863 </v>
   <v>       1.00048237       0.33474792       0.00013530 </v>
   <v>       0.00032289       0.64488340      -0.00011731 </v>
   <v>       0.29462025      -0.00058950       0.00129147 </v>
   <v>       0.70663117       0.34821082      -0.00143363 </v>
   <v>       0.10518447       0.22356572       0.94357215 </v>
   <v>       0.20905021       0.10952529       0.05802090 </v>
   <v>       0.12050295       0.55770066       0.94647001 </v>
   <v>       0.22386955       0.44680200       0.05479341 </v>
   <v>       0.09695301       0.88412483       0.94804711 </v>
   <v>       0.22768291       0.77429574       0.04987724 </v>
   <v>       0.44813648       0.22345866       0.95417813 </v>
   <v>       0.55479289       0.11067650       0.04485180 </v>
   <v>       0.44587153       0.55089108       0.95228396 </v>
   <v>       0.55585572       0.44359831       0.04252314 </v>
   <v>       0.44129993       0.88775652       0.96014054 </v>
   <v>       0.55875708       0.78042667       0.04592555 </v>
   <v>       0.78014843       0.21765832       0.94493104 </v>
   <v>       0.88343638       0.11211651       0.05424119 </v>
   <v>       0.78218362       0.55974406       0.94742350 </v>
   <v>       0.89564197       0.44560800       0.05628432 </v>
   <v>       0.77160252       0.88837157       0.94796841 </v>
   <v>       0.89171621       0.77745336       0.04820893 </v>
  </varray>
 </structure>
</modeling>
