   27   27  100    1
  0.9710400E+02  0.1002848E-08  0.1002848E-08  0.3000000E-08  0.5000000E-15
  1.000000000000000E-004
  CAR 
 unknown system                          
    159     34    120
 
  0.0000000E+00  0.0000000E+00  0.0000000E+00  0.1562500E-01
    1      -17.856018   1.000000
    2      -16.767739   1.000000
    3      -16.671328   1.000000
    4      -16.556352   1.000000
    5      -16.541054   1.000000
    6      -16.536448   1.000000
    7      -16.411041   1.000000
    8      -16.327074   1.000000
    9      -16.227627   1.000000
   10      -16.107806   1.000000
   11      -16.081138   1.000000
   12      -15.976746   1.000000
   13      -15.889935   1.000000
   14      -15.637098   1.000000
   15      -15.592216   1.000000
   16      -15.455100   1.000000
   17      -15.231439   1.000000
   18      -15.179063   1.000000
   19       -9.484796   1.000000
   20       -9.014438   1.000000
   21       -8.969346   1.000000
   22       -8.864901   1.000000
   23       -8.745088   1.000000
   24       -8.679264   1.000000
   25       -8.594746   1.000000
   26       -8.577268   1.000000
   27       -8.554793   1.000000
   28       -8.472269   1.000000
   29       -8.454668   1.000000
   30       -8.405933   1.000000
   31       -8.336666   1.000000
   32       -8.150703   1.000000
   33       -8.142939   1.000000
   34       -8.037475   1.000000
   35       -7.824913   1.000000
   36       -7.753411   1.000000
   37       -7.642467   1.000000
   38       -7.631517   1.000000
   39       -7.514570   1.000000
   40       -7.367612   1.000000
   41       -7.338158   1.000000
   42       -7.180841   1.000000
   43       -7.047236   1.000000
   44       -6.883878   1.000000
   45       -6.876266   1.000000
   46       -6.833171   1.000000
   47       -6.815458   1.000000
   48       -6.732188   1.000000
   49       -6.609554   1.000000
   50       -6.496000   1.000000
   51       -6.409467   1.000000
   52       -6.281501   1.000000
   53       -6.210868   1.000000
   54       -6.174363   1.000000
   55       -6.103496   1.000000
   56       -6.008921   1.000000
   57       -5.941997   1.000000
   58       -5.857965   1.000000
   59       -5.828510   1.000000
   60       -5.798392   1.000000
   61       -5.624229   1.000000
   62       -5.340484   1.000000
   63       -5.296075   1.000000
   64       -5.022470   1.000000
   65       -4.996784   1.000000
   66       -4.899939   1.000000
   67       -4.842190   1.000000
   68       -4.766864   1.000000
   69       -4.702383   1.000000
   70       -4.678981   1.000000
   71       -4.621958   1.000000
   72       -4.554274   1.000000
   73       -4.490756   1.000000
   74       -4.347699   1.000000
   75       -4.278409   1.000000
   76       -4.005601   1.000000
   77       -3.760930   0.999926
   78       -3.579015   0.993939
   79       -3.497848   0.973481
   80       -3.175881   0.366161
   81       -3.117060   0.224235
   82       -2.827642   0.002520
   83       -2.638392   0.000017
   84       -2.626369   0.000012
   85       -2.532484   0.000001
   86       -2.454383   0.000000
   87       -2.227173   0.000000
   88       -2.196213   0.000000
   89       -2.144179   0.000000
   90       -1.987378   0.000000
   91       -1.876029   0.000000
   92       -1.614142   0.000000
   93       -1.445623   0.000000
   94       -1.151008   0.000000
   95       -1.100542   0.000000
   96       -1.050602   0.000000
   97       -1.023057   0.000000
   98       -0.896499   0.000000
   99       -0.834616   0.000000
  100       -0.597967   0.000000
  101       -0.563562   0.000000
  102       -0.493015   0.000000
  103       -0.298532   0.000000
  104       -0.272791   0.000000
  105       -0.121724   0.000000
  106       -0.048865   0.000000
  107       -0.001895   0.000000
  108        0.043775   0.000000
  109        0.135582   0.000000
  110        0.226698   0.000000
  111        0.387000   0.000000
  112        0.477323   0.000000
  113        0.536358   0.000000
  114        0.966191   0.000000
  115        1.033318   0.000000
  116        1.045112   0.000000
  117        1.139336   0.000000
  118        1.654826   0.000000
  119        1.844879   0.000000
  120        2.176264   0.000000
 
  0.1250000E+00  0.2775558E-16  0.0000000E+00  0.3125000E-01
    1      -17.831447   1.000000
    2      -16.799808   1.000000
    3      -16.759684   1.000000
    4      -16.611535   1.000000
    5      -16.560103   1.000000
    6      -16.432752   1.000000
    7      -16.383382   1.000000
    8      -16.352016   1.000000
    9      -16.281477   1.000000
   10      -16.053779   1.000000
   11      -16.009297   1.000000
   12      -15.969510   1.000000
   13      -15.870448   1.000000
   14      -15.633614   1.000000
   15      -15.586056   1.000000
   16      -15.464459   1.000000
   17      -15.250582   1.000000
   18      -15.183410   1.000000
   19       -9.485635   1.000000
   20       -9.160778   1.000000
   21       -9.052091   1.000000
   22       -8.996848   1.000000
   23       -8.737571   1.000000
   24       -8.707100   1.000000
   25       -8.619693   1.000000
   26       -8.567478   1.000000
   27       -8.535144   1.000000
   28       -8.464545   1.000000
   29       -8.429964   1.000000
   30       -8.319686   1.000000
   31       -8.281353   1.000000
   32       -8.065990   1.000000
   33       -7.992752   1.000000
   34       -7.938727   1.000000
   35       -7.830469   1.000000
   36       -7.776566   1.000000
   37       -7.716268   1.000000
   38       -7.541458   1.000000
   39       -7.437721   1.000000
   40       -7.369095   1.000000
   41       -7.316582   1.000000
   42       -7.221687   1.000000
   43       -7.099699   1.000000
   44       -6.957212   1.000000
   45       -6.921449   1.000000
   46       -6.851737   1.000000
   47       -6.802654   1.000000
   48       -6.664554   1.000000
   49       -6.593864   1.000000
   50       -6.498514   1.000000
   51       -6.410333   1.000000
   52       -6.297710   1.000000
   53       -6.230989   1.000000
   54       -6.158245   1.000000
   55       -6.126909   1.000000
   56       -6.048155   1.000000
   57       -5.904771   1.000000
   58       -5.862089   1.000000
   59       -5.812430   1.000000
   60       -5.671660   1.000000
   61       -5.575175   1.000000
   62       -5.361169   1.000000
   63       -5.308895   1.000000
   64       -5.207443   1.000000
   65       -5.060270   1.000000
   66       -5.018312   1.000000
   67       -4.912938   1.000000
   68       -4.836776   1.000000
   69       -4.685081   1.000000
   70       -4.637489   1.000000
   71       -4.521343   1.000000
   72       -4.455274   1.000000
   73       -4.414528   1.000000
   74       -4.303499   1.000000
   75       -4.261889   1.000000
   76       -3.917309   1.000000
   77       -3.801046   0.999977
   78       -3.693612   0.999548
   79       -3.478793   0.964060
   80       -3.377551   0.860814
   81       -2.941767   0.022887
   82       -2.827002   0.002485
   83       -2.674788   0.000051
   84       -2.606886   0.000006
   85       -2.533638   0.000001
   86       -2.457259   0.000000
   87       -2.236821   0.000000
   88       -2.164665   0.000000
   89       -2.101309   0.000000
   90       -1.980727   0.000000
   91       -1.830597   0.000000
   92       -1.609264   0.000000
   93       -1.436207   0.000000
   94       -1.165203   0.000000
   95       -1.099218   0.000000
   96       -1.061684   0.000000
   97       -1.006177   0.000000
   98       -0.904743   0.000000
   99       -0.839581   0.000000
  100       -0.650522   0.000000
  101       -0.612192   0.000000
  102       -0.522145   0.000000
  103       -0.383181   0.000000
  104       -0.333536   0.000000
  105       -0.181664   0.000000
  106       -0.121091   0.000000
  107       -0.087947   0.000000
  108        0.055584   0.000000
  109        0.133592   0.000000
  110        0.262433   0.000000
  111        0.422049   0.000000
  112        0.503290   0.000000
  113        0.598430   0.000000
  114        0.931820   0.000000
  115        1.001228   0.000000
  116        1.104403   0.000000
  117        1.208918   0.000000
  118        1.699790   0.000000
  119        1.883175   0.000000
  120        2.211682   0.000000
 
  0.2500000E+00  0.5551115E-16  0.0000000E+00  0.3125000E-01
    1      -17.759872   1.000000
    2      -17.003200   1.000000
    3      -16.756631   1.000000
    4      -16.661533   1.000000
    5      -16.596507   1.000000
    6      -16.453354   1.000000
    7      -16.363642   1.000000
    8      -16.300462   1.000000
    9      -16.249185   1.000000
   10      -16.034910   1.000000
   11      -15.973246   1.000000
   12      -15.858431   1.000000
   13      -15.831673   1.000000
   14      -15.609741   1.000000
   15      -15.579168   1.000000
   16      -15.477924   1.000000
   17      -15.291148   1.000000
   18      -15.203699   1.000000
   19       -9.599893   1.000000
   20       -9.307496   1.000000
   21       -9.182124   1.000000
   22       -9.128537   1.000000
   23       -8.814677   1.000000
   24       -8.745927   1.000000
   25       -8.623849   1.000000
   26       -8.578144   1.000000
   27       -8.498213   1.000000
   28       -8.414682   1.000000
   29       -8.321408   1.000000
   30       -8.253522   1.000000
   31       -8.135564   1.000000
   32       -8.061062   1.000000
   33       -7.985012   1.000000
   34       -7.804449   1.000000
   35       -7.771830   1.000000
   36       -7.665860   1.000000
   37       -7.559269   1.000000
   38       -7.505553   1.000000
   39       -7.431629   1.000000
   40       -7.372386   1.000000
   41       -7.305530   1.000000
   42       -7.201986   1.000000
   43       -7.139408   1.000000
   44       -7.011771   1.000000
   45       -6.949660   1.000000
   46       -6.823206   1.000000
   47       -6.793214   1.000000
   48       -6.662858   1.000000
   49       -6.544362   1.000000
   50       -6.458655   1.000000
   51       -6.387617   1.000000
   52       -6.307114   1.000000
   53       -6.299984   1.000000
   54       -6.161084   1.000000
   55       -6.116512   1.000000
   56       -6.065047   1.000000
   57       -5.873574   1.000000
   58       -5.825371   1.000000
   59       -5.784559   1.000000
   60       -5.646800   1.000000
   61       -5.567828   1.000000
   62       -5.507469   1.000000
   63       -5.448558   1.000000
   64       -5.257934   1.000000
   65       -5.152169   1.000000
   66       -5.129411   1.000000
   67       -5.014809   1.000000
   68       -4.865397   1.000000
   69       -4.698617   1.000000
   70       -4.592372   1.000000
   71       -4.432596   1.000000
   72       -4.351563   1.000000
   73       -4.297672   1.000000
   74       -4.237564   1.000000
   75       -4.128577   1.000000
   76       -4.012783   1.000000
   77       -3.913108   0.999999
   78       -3.757519   0.999919
   79       -3.503023   0.975650
   80       -3.397435   0.889634
   81       -2.925177   0.017224
   82       -2.794051   0.001175
   83       -2.704737   0.000120
   84       -2.596547   0.000005
   85       -2.513887   0.000000
   86       -2.432668   0.000000
   87       -2.259811   0.000000
   88       -2.081839   0.000000
   89       -2.035427   0.000000
   90       -1.943649   0.000000
   91       -1.776755   0.000000
   92       -1.538844   0.000000
   93       -1.421888   0.000000
   94       -1.218395   0.000000
   95       -1.115460   0.000000
   96       -1.074221   0.000000
   97       -0.998034   0.000000
   98       -0.945018   0.000000
   99       -0.848809   0.000000
  100       -0.750090   0.000000
  101       -0.714314   0.000000
  102       -0.609953   0.000000
  103       -0.518524   0.000000
  104       -0.430180   0.000000
  105       -0.324176   0.000000
  106       -0.235252   0.000000
  107       -0.189115   0.000000
  108        0.007860   0.000000
  109        0.113731   0.000000
  110        0.245154   0.000000
  111        0.380215   0.000000
  112        0.570527   0.000000
  113        0.733635   0.000000
  114        0.945033   0.000000
  115        1.039617   0.000000
  116        1.197015   0.000000
  117        1.304530   0.000000
  118        1.824611   0.000000
  119        1.993977   0.000000
  120        2.316636   0.000000
 
  0.3750000E+00  0.0000000E+00  0.0000000E+00  0.3125000E-01
    1      -17.651776   1.000000
    2      -17.205914   1.000000
    3      -16.761152   1.000000
    4      -16.682814   1.000000
    5      -16.623479   1.000000
    6      -16.516867   1.000000
    7      -16.333992   1.000000
    8      -16.249033   1.000000
    9      -16.213786   1.000000
   10      -16.032701   1.000000
   11      -15.876974   1.000000
   12      -15.845872   1.000000
   13      -15.780080   1.000000
   14      -15.625827   1.000000
   15      -15.570769   1.000000
   16      -15.439327   1.000000
   17      -15.321571   1.000000
   18      -15.242478   1.000000
   19       -9.789141   1.000000
   20       -9.377181   1.000000
   21       -9.253973   1.000000
   22       -9.128358   1.000000
   23       -8.894432   1.000000
   24       -8.797318   1.000000
   25       -8.584668   1.000000
   26       -8.571661   1.000000
   27       -8.480110   1.000000
   28       -8.345153   1.000000
   29       -8.283860   1.000000
   30       -8.192449   1.000000
   31       -8.144511   1.000000
   32       -8.003130   1.000000
   33       -7.943019   1.000000
   34       -7.832871   1.000000
   35       -7.748591   1.000000
   36       -7.680816   1.000000
   37       -7.545957   1.000000
   38       -7.507369   1.000000
   39       -7.470229   1.000000
   40       -7.299310   1.000000
   41       -7.152281   1.000000
   42       -7.121155   1.000000
   43       -7.046688   1.000000
   44       -6.961720   1.000000
   45       -6.925177   1.000000
   46       -6.813859   1.000000
   47       -6.723589   1.000000
   48       -6.644363   1.000000
   49       -6.478903   1.000000
   50       -6.429943   1.000000
   51       -6.343355   1.000000
   52       -6.282407   1.000000
   53       -6.225695   1.000000
   54       -6.187320   1.000000
   55       -6.169117   1.000000
   56       -6.070486   1.000000
   57       -6.016904   1.000000
   58       -5.952537   1.000000
   59       -5.840965   1.000000
   60       -5.731236   1.000000
   61       -5.637875   1.000000
   62       -5.554554   1.000000
   63       -5.441288   1.000000
   64       -5.337325   1.000000
   65       -5.163387   1.000000
   66       -5.102248   1.000000
   67       -5.004063   1.000000
   68       -4.814642   1.000000
   69       -4.771347   1.000000
   70       -4.636563   1.000000
   71       -4.515348   1.000000
   72       -4.387417   1.000000
   73       -4.258162   1.000000
   74       -4.156731   1.000000
   75       -4.068631   1.000000
   76       -4.000554   1.000000
   77       -3.942019   1.000000
   78       -3.741321   0.999872
   79       -3.547418   0.988847
   80       -3.290928   0.681347
   81       -2.979327   0.041647
   82       -2.771820   0.000689
   83       -2.716336   0.000164
   84       -2.620562   0.000010
   85       -2.507588   0.000000
   86       -2.361000   0.000000
   87       -2.250877   0.000000
   88       -2.046558   0.000000
   89       -1.981747   0.000000
   90       -1.858965   0.000000
   91       -1.755147   0.000000
   92       -1.464821   0.000000
   93       -1.390405   0.000000
   94       -1.266659   0.000000
   95       -1.164912   0.000000
   96       -1.129962   0.000000
   97       -1.070019   0.000000
   98       -0.950448   0.000000
   99       -0.863893   0.000000
  100       -0.801183   0.000000
  101       -0.755234   0.000000
  102       -0.709376   0.000000
  103       -0.619240   0.000000
  104       -0.507005   0.000000
  105       -0.446227   0.000000
  106       -0.313705   0.000000
  107       -0.274375   0.000000
  108       -0.105884   0.000000
  109        0.105072   0.000000
  110        0.174975   0.000000
  111        0.381316   0.000000
  112        0.628748   0.000000
  113        0.773801   0.000000
  114        0.981693   0.000000
  115        1.146089   0.000000
  116        1.253837   0.000000
  117        1.399683   0.000000
  118        2.010877   0.000000
  119        2.169879   0.000000
  120        2.481695   0.000000
 
  0.5000000E+00  0.1110223E-15  0.0000000E+00  0.1562500E-01
    1      -17.570808   1.000000
    2      -17.320453   1.000000
    3      -16.767276   1.000000
    4      -16.685133   1.000000
    5      -16.629348   1.000000
    6      -16.542713   1.000000
    7      -16.321423   1.000000
    8      -16.240250   1.000000
    9      -16.200881   1.000000
   10      -16.017582   1.000000
   11      -15.867498   1.000000
   12      -15.804008   1.000000
   13      -15.738277   1.000000
   14      -15.697271   1.000000
   15      -15.558272   1.000000
   16      -15.407618   1.000000
   17      -15.310620   1.000000
   18      -15.282331   1.000000
   19       -9.864339   1.000000
   20       -9.410993   1.000000
   21       -9.291824   1.000000
   22       -9.064522   1.000000
   23       -8.935892   1.000000
   24       -8.813622   1.000000
   25       -8.633498   1.000000
   26       -8.546341   1.000000
   27       -8.463564   1.000000
   28       -8.326002   1.000000
   29       -8.268882   1.000000
   30       -8.158940   1.000000
   31       -8.083782   1.000000
   32       -7.987487   1.000000
   33       -7.937971   1.000000
   34       -7.881194   1.000000
   35       -7.773346   1.000000
   36       -7.668032   1.000000
   37       -7.623033   1.000000
   38       -7.566008   1.000000
   39       -7.463987   1.000000
   40       -7.309676   1.000000
   41       -7.062194   1.000000
   42       -7.036133   1.000000
   43       -6.954267   1.000000
   44       -6.916966   1.000000
   45       -6.841872   1.000000
   46       -6.705747   1.000000
   47       -6.648814   1.000000
   48       -6.548877   1.000000
   49       -6.517176   1.000000
   50       -6.470508   1.000000
   51       -6.447996   1.000000
   52       -6.429098   1.000000
   53       -6.293231   1.000000
   54       -6.219624   1.000000
   55       -6.170073   1.000000
   56       -6.070432   1.000000
   57       -6.028393   1.000000
   58       -5.829784   1.000000
   59       -5.802212   1.000000
   60       -5.725778   1.000000
   61       -5.679429   1.000000
   62       -5.585273   1.000000
   63       -5.524608   1.000000
   64       -5.372061   1.000000
   65       -5.180981   1.000000
   66       -5.031106   1.000000
   67       -4.990042   1.000000
   68       -4.977037   1.000000
   69       -4.770163   1.000000
   70       -4.604944   1.000000
   71       -4.546570   1.000000
   72       -4.416045   1.000000
   73       -4.286918   1.000000
   74       -4.120935   1.000000
   75       -4.067440   1.000000
   76       -3.950968   1.000000
   77       -3.875167   0.999998
   78       -3.757008   0.999917
   79       -3.567227   0.992350
   80       -3.259124   0.597384
   81       -2.942725   0.023257
   82       -2.831508   0.002742
   83       -2.720916   0.000186
   84       -2.615374   0.000008
   85       -2.505125   0.000000
   86       -2.326465   0.000000
   87       -2.241716   0.000000
   88       -2.026835   0.000000
   89       -1.972936   0.000000
   90       -1.820574   0.000000
   91       -1.742259   0.000000
   92       -1.449703   0.000000
   93       -1.371525   0.000000
   94       -1.273826   0.000000
   95       -1.186493   0.000000
   96       -1.166735   0.000000
   97       -1.124964   0.000000
   98       -0.950263   0.000000
   99       -0.877812   0.000000
  100       -0.796656   0.000000
  101       -0.756906   0.000000
  102       -0.709740   0.000000
  103       -0.697227   0.000000
  104       -0.545119   0.000000
  105       -0.505357   0.000000
  106       -0.334697   0.000000
  107       -0.306317   0.000000
  108       -0.151476   0.000000
  109        0.091824   0.000000
  110        0.155195   0.000000
  111        0.384007   0.000000
  112        0.651458   0.000000
  113        0.778014   0.000000
  114        0.998158   0.000000
  115        1.197515   0.000000
  116        1.261513   0.000000
  117        1.444298   0.000000
  118        2.230754   0.000000
  119        2.263900   0.000000
  120        2.390361   0.000000
 
  0.0000000E+00  0.1250000E+00  0.0000000E+00  0.3125000E-01
    1      -17.831707   1.000000
    2      -16.806650   1.000000
    3      -16.742790   1.000000
    4      -16.621920   1.000000
    5      -16.549009   1.000000
    6      -16.452864   1.000000
    7      -16.399956   1.000000
    8      -16.340474   1.000000
    9      -16.256240   1.000000
   10      -16.071868   1.000000
   11      -16.006534   1.000000
   12      -15.974539   1.000000
   13      -15.859685   1.000000
   14      -15.636240   1.000000
   15      -15.586362   1.000000
   16      -15.460754   1.000000
   17      -15.251387   1.000000
   18      -15.184486   1.000000
   19       -9.488958   1.000000
   20       -9.147658   1.000000
   21       -9.043894   1.000000
   22       -8.987493   1.000000
   23       -8.761349   1.000000
   24       -8.691303   1.000000
   25       -8.652315   1.000000
   26       -8.569420   1.000000
   27       -8.515972   1.000000
   28       -8.490030   1.000000
   29       -8.453750   1.000000
   30       -8.310338   1.000000
   31       -8.244547   1.000000
   32       -8.082015   1.000000
   33       -8.010174   1.000000
   34       -7.902906   1.000000
   35       -7.844232   1.000000
   36       -7.761694   1.000000
   37       -7.714285   1.000000
   38       -7.513508   1.000000
   39       -7.447857   1.000000
   40       -7.372753   1.000000
   41       -7.328839   1.000000
   42       -7.207920   1.000000
   43       -7.112800   1.000000
   44       -6.954044   1.000000
   45       -6.900265   1.000000
   46       -6.880608   1.000000
   47       -6.800034   1.000000
   48       -6.698743   1.000000
   49       -6.600069   1.000000
   50       -6.506702   1.000000
   51       -6.389135   1.000000
   52       -6.298169   1.000000
   53       -6.237890   1.000000
   54       -6.160909   1.000000
   55       -6.118211   1.000000
   56       -5.997851   1.000000
   57       -5.936513   1.000000
   58       -5.847337   1.000000
   59       -5.819572   1.000000
   60       -5.669548   1.000000
   61       -5.572998   1.000000
   62       -5.369114   1.000000
   63       -5.308813   1.000000
   64       -5.203382   1.000000
   65       -5.068447   1.000000
   66       -4.990049   1.000000
   67       -4.907984   1.000000
   68       -4.832405   1.000000
   69       -4.712797   1.000000
   70       -4.654110   1.000000
   71       -4.507841   1.000000
   72       -4.491935   1.000000
   73       -4.353663   1.000000
   74       -4.326756   1.000000
   75       -4.258631   1.000000
   76       -3.923121   1.000000
   77       -3.823188   0.999989
   78       -3.668384   0.999157
   79       -3.479069   0.964213
   80       -3.375026   0.856818
   81       -2.946697   0.024846
   82       -2.830482   0.002681
   83       -2.679181   0.000058
   84       -2.590862   0.000004
   85       -2.536128   0.000001
   86       -2.457512   0.000000
   87       -2.238500   0.000000
   88       -2.172500   0.000000
   89       -2.083301   0.000000
   90       -2.000165   0.000000
   91       -1.842384   0.000000
   92       -1.596854   0.000000
   93       -1.440978   0.000000
   94       -1.151350   0.000000
   95       -1.090119   0.000000
   96       -1.062192   0.000000
   97       -1.020605   0.000000
   98       -0.894322   0.000000
   99       -0.836092   0.000000
  100       -0.638892   0.000000
  101       -0.609928   0.000000
  102       -0.566715   0.000000
  103       -0.419575   0.000000
  104       -0.303089   0.000000
  105       -0.182406   0.000000
  106       -0.111249   0.000000
  107       -0.051484   0.000000
  108        0.060583   0.000000
  109        0.126923   0.000000
  110        0.240867   0.000000
  111        0.360033   0.000000
  112        0.511915   0.000000
  113        0.600191   0.000000
  114        0.935274   0.000000
  115        1.025417   0.000000
  116        1.111471   0.000000
  117        1.220536   0.000000
  118        1.700532   0.000000
  119        1.883661   0.000000
  120        2.211832   0.000000
 
  0.1250000E+00  0.1250000E+00  0.0000000E+00  0.3125000E-01
    1      -17.782903   1.000000
    2      -16.938797   1.000000
    3      -16.745682   1.000000
    4      -16.710212   1.000000
    5      -16.523293   1.000000
    6      -16.451513   1.000000
    7      -16.385094   1.000000
    8      -16.317174   1.000000
    9      -16.241262   1.000000
   10      -16.072161   1.000000
   11      -16.012108   1.000000
   12      -15.869489   1.000000
   13      -15.822110   1.000000
   14      -15.611649   1.000000
   15      -15.569136   1.000000
   16      -15.462588   1.000000
   17      -15.290785   1.000000
   18      -15.206616   1.000000
   19       -9.554697   1.000000
   20       -9.261000   1.000000
   21       -9.224542   1.000000
   22       -9.037751   1.000000
   23       -8.787245   1.000000
   24       -8.714708   1.000000
   25       -8.643627   1.000000
   26       -8.534089   1.000000
   27       -8.472404   1.000000
   28       -8.443608   1.000000
   29       -8.403475   1.000000
   30       -8.328641   1.000000
   31       -8.205584   1.000000
   32       -8.080128   1.000000
   33       -7.982427   1.000000
   34       -7.851787   1.000000
   35       -7.719601   1.000000
   36       -7.644556   1.000000
   37       -7.598111   1.000000
   38       -7.494077   1.000000
   39       -7.377898   1.000000
   40       -7.343826   1.000000
   41       -7.296154   1.000000
   42       -7.247899   1.000000
   43       -7.142610   1.000000
   44       -7.042470   1.000000
   45       -6.992280   1.000000
   46       -6.890076   1.000000
   47       -6.775314   1.000000
   48       -6.683288   1.000000
   49       -6.567235   1.000000
   50       -6.510707   1.000000
   51       -6.381303   1.000000
   52       -6.325208   1.000000
   53       -6.272981   1.000000
   54       -6.189730   1.000000
   55       -6.116769   1.000000
   56       -5.970691   1.000000
   57       -5.885213   1.000000
   58       -5.765166   1.000000
   59       -5.755422   1.000000
   60       -5.663591   1.000000
   61       -5.545261   1.000000
   62       -5.483013   1.000000
   63       -5.302703   1.000000
   64       -5.261709   1.000000
   65       -5.179804   1.000000
   66       -5.165999   1.000000
   67       -5.032406   1.000000
   68       -4.839372   1.000000
   69       -4.705782   1.000000
   70       -4.659546   1.000000
   71       -4.442843   1.000000
   72       -4.354877   1.000000
   73       -4.276682   1.000000
   74       -4.230670   1.000000
   75       -4.153230   1.000000
   76       -3.990501   1.000000
   77       -3.857285   0.999996
   78       -3.698271   0.999599
   79       -3.581637   0.994249
   80       -3.397422   0.889617
   81       -2.941076   0.022623
   82       -2.831375   0.002734
   83       -2.713203   0.000151
   84       -2.562299   0.000001
   85       -2.517209   0.000000
   86       -2.462614   0.000000
   87       -2.303787   0.000000
   88       -2.098143   0.000000
   89       -2.049571   0.000000
   90       -1.988761   0.000000
   91       -1.772929   0.000000
   92       -1.530726   0.000000
   93       -1.441982   0.000000
   94       -1.184879   0.000000
   95       -1.079066   0.000000
   96       -1.053795   0.000000
   97       -1.020882   0.000000
   98       -0.897353   0.000000
   99       -0.851057   0.000000
  100       -0.688784   0.000000
  101       -0.660157   0.000000
  102       -0.621424   0.000000
  103       -0.516065   0.000000
  104       -0.412135   0.000000
  105       -0.292815   0.000000
  106       -0.181579   0.000000
  107       -0.145609   0.000000
  108        0.007225   0.000000
  109        0.058712   0.000000
  110        0.212892   0.000000
  111        0.346375   0.000000
  112        0.539488   0.000000
  113        0.711443   0.000000
  114        0.956712   0.000000
  115        1.042019   0.000000
  116        1.216607   0.000000
  117        1.344398   0.000000
  118        1.787752   0.000000
  119        1.955447   0.000000
  120        2.282844   0.000000
 
  0.2500000E+00  0.1250000E+00  0.0000000E+00  0.3125000E-01
    1      -17.691413   1.000000
    2      -17.114395   1.000000
    3      -16.845100   1.000000
    4      -16.700965   1.000000
    5      -16.529485   1.000000
    6      -16.469765   1.000000
    7      -16.334929   1.000000
    8      -16.278524   1.000000
    9      -16.216059   1.000000
   10      -16.073873   1.000000
   11      -15.950444   1.000000
   12      -15.842786   1.000000
   13      -15.785090   1.000000
   14      -15.580408   1.000000
   15      -15.554421   1.000000
   16      -15.443816   1.000000
   17      -15.324385   1.000000
   18      -15.246913   1.000000
   19       -9.711543   1.000000
   20       -9.438005   1.000000
   21       -9.222563   1.000000
   22       -9.155579   1.000000
   23       -8.792561   1.000000
   24       -8.730462   1.000000
   25       -8.569730   1.000000
   26       -8.537253   1.000000
   27       -8.471904   1.000000
   28       -8.372297   1.000000
   29       -8.313859   1.000000
   30       -8.249658   1.000000
   31       -8.150563   1.000000
   32       -8.145182   1.000000
   33       -7.970779   1.000000
   34       -7.909549   1.000000
   35       -7.795654   1.000000
   36       -7.543626   1.000000
   37       -7.483485   1.000000
   38       -7.417019   1.000000
   39       -7.386031   1.000000
   40       -7.334839   1.000000
   41       -7.230420   1.000000
   42       -7.191075   1.000000
   43       -7.123728   1.000000
   44       -6.967722   1.000000
   45       -6.900288   1.000000
   46       -6.882924   1.000000
   47       -6.773028   1.000000