       N       E                     dE             d eps       ncg     rms          rms(c)
DAV:   1     0.111987497481E+04    0.11199E+04   -0.35905E+04  8200   0.577E+02
DAV:   2    -0.556558003059E+01   -0.11254E+04   -0.10848E+04 11280   0.173E+02
DAV:   3    -0.199917970268E+03   -0.19435E+03   -0.18670E+03 10880   0.816E+01
DAV:   4    -0.208928773003E+03   -0.90108E+01   -0.87468E+01 12120   0.260E+01
DAV:   5    -0.209246502388E+03   -0.31773E+00   -0.31685E+00 11360   0.359E+00    0.274E+01
DAV:   6    -0.236613483176E+03   -0.27367E+02   -0.10839E+02 12880   0.603E+01    0.592E+01
DAV:   7    -0.196791099591E+03    0.39822E+02   -0.17634E+02 13080   0.152E+02    0.205E+01
DAV:   8    -0.190231233071E+03    0.65599E+01   -0.21372E+01 11560   0.135E+01    0.139E+01
DAV:   9    -0.188312932914E+03    0.19183E+01   -0.35985E+00 11960   0.636E+00    0.940E+00
DAV:  10    -0.187163889303E+03    0.11490E+01   -0.18170E+00 13240   0.749E+00    0.373E+00
DAV:  11    -0.187002973239E+03    0.16092E+00   -0.73118E-01 12560   0.269E+00    0.226E+00
DAV:  12    -0.187099464226E+03   -0.96491E-01   -0.54377E-01 13320   0.383E+00    0.469E+00
DAV:  13    -0.186940353262E+03    0.15911E+00   -0.53381E-01 13120   0.387E+00    0.199E+00
DAV:  14    -0.186900981805E+03    0.39371E-01   -0.97595E-02 13360   0.161E+00    0.855E-01
DAV:  15    -0.186898378432E+03    0.26034E-02   -0.43277E-02 12920   0.113E+00    0.101E+00
DAV:  16    -0.186891700996E+03    0.66774E-02   -0.18934E-02 12680   0.767E-01    0.514E-01
DAV:  17    -0.186889265036E+03    0.24360E-02   -0.67188E-03 13120   0.312E-01    0.235E-01
DAV:  18    -0.186888293772E+03    0.97126E-03   -0.38075E-03 12680   0.280E-01    0.208E-01
DAV:  19    -0.186887942268E+03    0.35150E-03   -0.10717E-03 11640   0.163E-01    0.480E-02
DAV:  20    -0.186888695815E+03   -0.75355E-03   -0.72514E-04  9080   0.594E-02    0.530E-02
DAV:  21    -0.186889252956E+03   -0.55714E-03   -0.23652E-04  8320   0.456E-02    0.287E-02
DAV:  22    -0.186890411521E+03   -0.11586E-02   -0.17691E-04  7480   0.393E-02    0.338E-02
DAV:  23    -0.186891637519E+03   -0.12260E-02   -0.13063E-04  7480   0.410E-02    0.126E-02
DAV:  24    -0.186892230122E+03   -0.59260E-03   -0.26216E-05  6800   0.132E-02    0.643E-03
DAV:  25    -0.186892615832E+03   -0.38571E-03   -0.15160E-05  5480   0.975E-03    0.421E-03
DAV:  26    -0.186892856489E+03   -0.24066E-03   -0.91150E-06  6840   0.696E-03    0.156E-03
DAV:  27    -0.186892956269E+03   -0.99780E-04   -0.35275E-06  7280   0.415E-03
   1 F= -.18689296E+03 E0= -.18672226E+03  d E =-.186893E+03
       N       E                     dE             d eps       ncg     rms          rms(c)
DAV:   1    -0.187533481750E+03   -0.64063E+00   -0.27213E+02  8160   0.351E+01    0.463E+00
DAV:   2    -0.189429107948E+03   -0.18956E+01   -0.20157E+01 12280   0.153E+01    0.880E+00
DAV:   3    -0.189395304864E+03    0.33803E-01   -0.40358E+00 12360   0.121E+01    0.665E+00
DAV:   4    -0.188788312861E+03    0.60699E+00   -0.61002E-01 12480   0.466E+00    0.174E+00
DAV:   5    -0.188900042528E+03   -0.11173E+00   -0.46847E-01 12280   0.338E+00    0.536E+00
DAV:   6    -0.188752386960E+03    0.14766E+00   -0.74734E-01 12800   0.429E+00    0.197E+00
DAV:   7    -0.188723235156E+03    0.29152E-01   -0.11708E-01 11800   0.145E+00    0.121E+00
DAV:   8    -0.188712326130E+03    0.10909E-01   -0.59288E-02 13320   0.133E+00    0.118E+00
DAV:   9    -0.188702156217E+03    0.10170E-01   -0.19575E-02 11840   0.784E-01    0.326E-01
DAV:  10    -0.188701524057E+03    0.63216E-03   -0.35572E-03 11600   0.205E-01    0.214E-01
DAV:  11    -0.188700945439E+03    0.57862E-03   -0.24362E-03 12440   0.180E-01    0.107E-01
DAV:  12    -0.188701065996E+03   -0.12056E-03   -0.90625E-04 11360   0.954E-02    0.853E-02
DAV:  13    -0.188700997784E+03    0.68212E-04   -0.23775E-04  7960   0.557E-02
   2 F= -.18870100E+03 E0= -.18856195E+03  d E =-.180804E+01
       N       E                     dE             d eps       ncg     rms          rms(c)
DAV:   1    -0.190620128037E+03   -0.19191E+01   -0.31255E+01  8960   0.142E+01    0.442E+00
DAV:   2    -0.190566437004E+03    0.53691E-01   -0.27486E+00 11200   0.942E+00    0.719E+00
DAV:   3    -0.190106274206E+03    0.46016E+00   -0.13308E+00 12360   0.857E+00    0.420E+00
DAV:   4    -0.189897656264E+03    0.20862E+00   -0.72204E-01 12800   0.424E+00    0.252E+00
DAV:   5    -0.189877930541E+03    0.19726E-01   -0.38213E-01 12280   0.317E+00    0.286E+00
DAV:   6    -0.189799865894E+03    0.78065E-01   -0.15146E-01 12640   0.250E+00    0.708E-01
DAV:   7    -0.189793462087E+03    0.64038E-02   -0.13791E-02 11560   0.516E-01    0.207E-01
DAV:   8    -0.189793877046E+03   -0.41496E-03   -0.34790E-03 12000   0.273E-01    0.280E-01
DAV:   9    -0.189793510421E+03    0.36663E-03   -0.17912E-03 10760   0.279E-01    0.160E-01
DAV:  10    -0.189793703602E+03   -0.19318E-03   -0.79223E-04  9640   0.135E-01    0.108E-01
DAV:  11    -0.189793497953E+03    0.20565E-03   -0.36079E-04  8800   0.694E-02    0.216E-02
DAV:  12    -0.189793515448E+03   -0.17495E-04   -0.59467E-05  7120   0.249E-02
   3 F= -.18979352E+03 E0= -.18967506E+03  d E =-.109252E+01
       N       E                     dE             d eps       ncg     rms          rms(c)
DAV:   1    -0.191372668375E+03   -0.15792E+01   -0.78080E+01  8160   0.201E+01    0.460E+00
DAV:   2    -0.191206326328E+03    0.16634E+00   -0.54112E+00 13200   0.783E+00    0.472E+00
DAV:   3    -0.191316553420E+03   -0.11023E+00   -0.16077E+00 12200   0.911E+00    0.653E+00
DAV:   4    -0.190942509493E+03    0.37404E+00   -0.13750E+00 12440   0.753E+00    0.301E+00
DAV:   5    -0.190898771069E+03    0.43738E-01   -0.45733E-01 12560   0.407E+00    0.296E+00
DAV:   6    -0.190806638228E+03    0.92133E-01   -0.21464E-01 12280   0.321E+00    0.122E+00
DAV:   7    -0.190792682510E+03    0.13956E-01   -0.46914E-02 12720   0.112E+00    0.439E-01
DAV:   8    -0.190792010301E+03    0.67221E-03   -0.10715E-02 11440   0.600E-01    0.511E-01
DAV:   9    -0.190789775282E+03    0.22350E-02   -0.43784E-03 11320   0.453E-01    0.148E-01
DAV:  10    -0.190790046655E+03   -0.27137E-03   -0.12523E-03 11400   0.133E-01    0.930E-02
DAV:  11    -0.190789922359E+03    0.12430E-03   -0.48730E-04  9720   0.808E-02    0.450E-02
DAV:  12    -0.190789919659E+03    0.26995E-05   -0.10366E-04  6960   0.395E-02
   4 F= -.19078992E+03 E0= -.19068494E+03  d E =-.996404E+00
       N       E                     dE             d eps       ncg     rms          rms(c)
DAV:   1    -0.192095245337E+03   -0.13053E+01   -0.16092E+02  8160   0.283E+01    0.557E+00
DAV:   2    -0.191862800653E+03    0.23244E+00   -0.92213E+00 11480   0.806E+00    0.388E+00
DAV:   3    -0.192064650649E+03   -0.20185E+00   -0.20632E+00 11200   0.870E+00    0.806E+00
DAV:   4    -0.191747371550E+03    0.31728E+00   -0.28821E+00 11480   0.108E+01    0.444E+00
DAV:   5    -0.191572430237E+03    0.17494E+00   -0.73868E-01 12360   0.547E+00    0.320E+00
DAV:   6    -0.191447958006E+03    0.12447E+00   -0.27399E-01 12280   0.375E+00    0.127E+00
DAV:   7    -0.191433606381E+03    0.14352E-01   -0.61976E-02 12280   0.132E+00    0.511E-01
DAV:   8    -0.191429407004E+03    0.41994E-02   -0.10354E-02 10720   0.475E-01    0.230E-01
DAV:   9    -0.191431003525E+03   -0.15965E-02   -0.52368E-03 12680   0.493E-01    0.439E-01
DAV:  10    -0.191429359437E+03    0.16441E-02   -0.39074E-03 11200   0.394E-01    0.649E-02
DAV:  11    -0.191429429181E+03   -0.69745E-04   -0.38230E-04  9640   0.727E-02
   5 F= -.19142943E+03 E0= -.19132399E+03  d E =-.639510E+00
       N       E                     dE             d eps       ncg     rms          rms(c)
DAV:   1    -0.191478546913E+03   -0.49187E-01   -0.40626E+00  8160   0.426E+00    0.591E-01
DAV:   2    -0.191531392984E+03   -0.52846E-01   -0.24784E-01 13280   0.269E+00    0.199E+00
DAV:   3    -0.191489619467E+03    0.41774E-01   -0.88680E-02 12440   0.209E+00    0.382E-01
DAV:   4    -0.191491200908E+03   -0.15814E-02   -0.12316E-02 11400   0.698E-01    0.588E-01
DAV:   5    -0.191487754515E+03    0.34464E-02   -0.74303E-03 10280   0.570E-01    0.176E-01
DAV:   6    -0.191487736299E+03    0.18216E-04   -0.17344E-03 10440   0.172E-01    0.126E-01
DAV:   7    -0.191487440267E+03    0.29603E-03   -0.92172E-04 10200   0.126E-01    0.712E-02
DAV:   8    -0.191487439610E+03    0.65625E-06   -0.29134E-04  7880   0.111E-01
   6 F= -.19148744E+03 E0= -.19137966E+03  d E =-.580104E-01
       N       E                     dE             d eps       ncg     rms          rms(c)
DAV:   1    -0.191540494652E+03   -0.53054E-01   -0.47368E+00  8160   0.460E+00    0.577E-01
DAV:   2    -0.191575322783E+03   -0.34828E-01   -0.17749E-01 13600   0.203E+00    0.160E+00
DAV:   3    -0.191547366752E+03    0.27956E-01   -0.68379E-02 12440   0.187E+00    0.433E-01
DAV:   4    -0.191547019975E+03    0.34678E-03   -0.89153E-03 11080   0.545E-01    0.447E-01
DAV:   5    -0.191545610108E+03    0.14099E-02   -0.71010E-03 10760   0.551E-01    0.287E-01
DAV:   6    -0.191544976718E+03    0.63339E-03   -0.24875E-03 10000   0.269E-01    0.115E-01
DAV:   7    -0.191544813652E+03    0.16307E-03   -0.78523E-04 10440   0.118E-01    0.662E-02
DAV:   8    -0.191544822232E+03   -0.85799E-05   -0.31264E-04  8120   0.116E-01
   7 F= -.19154482E+03 E0= -.19143519E+03  d E =-.573826E-01
       N       E                     dE             d eps       ncg     rms          rms(c)
DAV:   1    -0.191550293304E+03   -0.54797E-02   -0.60848E-02  8160   0.544E-01    0.948E-02
DAV:   2    -0.191550636436E+03   -0.34313E-03   -0.32964E-03 11520   0.251E-01    0.184E-01
DAV:   3    -0.191550316522E+03    0.31991E-03   -0.10764E-03 10200   0.236E-01    0.795E-02
DAV:   4    -0.191550283756E+03    0.32767E-04   -0.25932E-04  5920   0.104E-01
   8 F= -.19155028E+03 E0= -.19144070E+03  d E =-.546152E-02
       N       E                     dE             d eps       ncg     rms          rms(c)
DAV:   1    -0.191535121917E+03    0.15195E-01   -0.56167E+00  8160   0.530E+00    0.112E+00
DAV:   2    -0.191558747794E+03   -0.23626E-01   -0.38323E-01 12720   0.278E+00    0.190E+00
DAV:   3    -0.191526425490E+03    0.32322E-01   -0.13673E-01 12240   0.266E+00    0.109E+00
DAV:   4    -0.191523738538E+03    0.26870E-02   -0.72144E-02 11600   0.161E+00    0.123E+00
DAV:   5    -0.191514078549E+03    0.96600E-02   -0.59184E-02 10440   0.149E+00    0.697E-01
DAV:   6    -0.191507583873E+03    0.64947E-02   -0.14948E-02 10920   0.664E-01    0.143E-01
DAV:   7    -0.191507936578E+03   -0.35270E-03   -0.34308E-03 11960   0.302E-01    0.235E-01
DAV:   8    -0.191507530035E+03    0.40654E-03   -0.18556E-03 10200   0.291E-01    0.124E-01
DAV:   9    -0.191507357613E+03    0.17242E-03   -0.30971E-04  7360   0.107E-01    0.272E-02
DAV:  10    -0.191507390899E+03   -0.33285E-04   -0.82186E-05  7040   0.312E-02
   9 F= -.19150739E+03 E0= -.19139859E+03  d E =0.428929E-01
       N       E                     dE             d eps       ncg     rms          rms(c)
DAV:   1    -0.191482152275E+03    0.25205E-01   -0.97381E-01  8160   0.212E+00    0.330E-01
DAV:   2    -0.191487657870E+03   -0.55056E-02   -0.46929E-02 13440   0.100E+00    0.683E-01
DAV:   3    -0.191482803992E+03    0.48539E-02   -0.14519E-02 12320   0.864E-01    0.265E-01
DAV:   4    -0.191482666896E+03    0.13710E-03   -0.41126E-03 11200   0.385E-01    0.301E-01
DAV:   5    -0.191482035395E+03    0.63150E-03   -0.36668E-03 10000   0.390E-01    0.192E-01
DAV:   6    -0.191481668714E+03    0.36668E-03   -0.13252E-03  9640   0.196E-01    0.667E-02
DAV:   7    -0.191481728584E+03   -0.59871E-04   -0.47115E-04  8640   0.132E-01
  10 F= -.19148173E+03 E0= -.19137349E+03  d E =0.256623E-01
       N       E                     dE             d eps       ncg     rms          rms(c)
DAV:   1    -0.191715270395E+03   -0.23360E+00   -0.38174E+01  8160   0.135E+01    0.219E+00
DAV:   2    -0.192021804142E+03   -0.30653E+00   -0.17321E+00 13600   0.706E+00    0.581E+00
DAV:   3    -0.191707728315E+03    0.31408E+00   -0.88227E-01 12240   0.666E+00    0.150E+00
DAV:   4    -0.191720988122E+03   -0.13260E-01   -0.17899E-01 12320   0.270E+00    0.238E+00
DAV:   5    -0.191674011415E+03    0.46977E-01   -0.17100E-01 11400   0.275E+00    0.122E+00
DAV:   6    -0.191658459722E+03    0.15552E-01   -0.55863E-02 11720   0.124E+00    0.512E-01
DAV:   7    -0.191660997626E+03   -0.25379E-02   -0.24882E-02 11960   0.100E+00    0.775E-01
DAV:   8    -0.191655325958E+03    0.56717E-02   -0.13413E-02 11600   0.763E-01    0.176E-01
DAV:   9    -0.191654825497E+03    0.50046E-03   -0.11559E-03 10160   0.152E-01    0.664E-02
DAV:  10    -0.191654818923E+03    0.65743E-05   -0.41219E-04  9680   0.635E-02
  11 F= -.19165482E+03 E0= -.19154696E+03  d E =-.173090E+00
       N       E                     dE             d eps       ncg     rms          rms(c)
DAV:   1    -0.191658778193E+03   -0.39527E-02   -0.63943E-01  8160   0.184E+00    0.429E-01
DAV:   2    -0.191662032001E+03   -0.32538E-02   -0.44014E-02 11360   0.107E+00    0.840E-01
DAV:   3    -0.191655624551E+03    0.64075E-02   -0.21381E-02 11440   0.105E+00    0.417E-01
DAV:   4    -0.191655570846E+03    0.53705E-04   -0.10683E-02 11400   0.650E-01    0.484E-01
DAV:   5    -0.191654036331E+03    0.15345E-02   -0.78188E-03  9960   0.605E-01    0.293E-01
DAV:   6    -0.191652973779E+03    0.10626E-02   -0.28149E-03 10920   0.302E-01    0.102E-01
DAV:   7    -0.191652990902E+03   -0.17122E-04   -0.79370E-04  9560   0.178E-01
  12 F= -.19165299E+03 E0= -.19154496E+03  d E =0.182802E-02
       N       E                     dE             d eps       ncg     rms          rms(c)
DAV:   1    -0.191724441178E+03   -0.71467E-01   -0.58286E+00  8160   0.513E+00    0.606E-01
DAV:   2    -0.191755515140E+03   -0.31074E-01   -0.18831E-01 13560   0.208E+00    0.155E+00
DAV:   3    -0.191732346480E+03    0.23169E-01   -0.64776E-02 12240   0.180E+00    0.519E-01
DAV:   4    -0.191733890822E+03   -0.15443E-02   -0.17941E-02 12280   0.866E-01    0.704E-01
DAV:   5    -0.191728969164E+03    0.49217E-02   -0.10831E-02 11520   0.747E-01    0.225E-01
DAV:   6    -0.191728800631E+03    0.16853E-03   -0.30824E-03 10760   0.289E-01    0.192E-01
DAV:   7    -0.191729124980E+03   -0.32435E-03   -0.30635E-03 11040   0.385E-01    0.277E-01
DAV:   8    -0.191728305998E+03    0.81898E-03   -0.13011E-03  9440   0.252E-01    0.337E-02
DAV:   9    -0.191728312279E+03   -0.62812E-05   -0.85081E-05  5680   0.362E-02
  13 F= -.19172831E+03 E0= -.19162473E+03  d E =-.753214E-01
       N       E                     dE             d eps       ncg     rms          rms(c)
DAV:   1    -0.191644706701E+03    0.83599E-01   -0.62180E+00  8160   0.531E+00    0.625E-01
DAV:   2    -0.191675561127E+03   -0.30854E-01   -0.20744E-01 13520   0.204E+00    0.143E+00
DAV:   3    -0.191653468904E+03    0.22092E-01   -0.54111E-02 12080   0.171E+00    0.546E-01
DAV:   4    -0.191654209397E+03   -0.74049E-03   -0.19277E-02 12080   0.813E-01    0.669E-01
DAV:   5    -0.191650312779E+03    0.38966E-02   -0.11882E-02 11560   0.737E-01    0.271E-01
DAV:   6    -0.191649635242E+03    0.67754E-03   -0.31402E-03 11440   0.290E-01    0.125E-01
DAV:   7    -0.191649653339E+03   -0.18096E-04   -0.15348E-03 11760   0.214E-01    0.166E-01
DAV:   8    -0.191649380007E+03    0.27333E-03   -0.70330E-04  8920   0.181E-01    0.534E-02
DAV:   9    -0.191649363999E+03    0.16008E-04   -0.92056E-05  6120   0.543E-02
  14 F= -.19164936E+03 E0= -.19154120E+03  d E =0.789483E-01
       N       E                     dE             d eps       ncg     rms          rms(c)
DAV:   1    -0.191622207983E+03    0.27172E-01   -0.10065E+00  8160   0.214E+00    0.240E-01
DAV:   2    -0.191624586597E+03   -0.23786E-02   -0.30217E-02 12640   0.547E-01    0.351E-01
DAV:   3    -0.191624717583E+03   -0.13099E-03   -0.91125E-03 12400   0.603E-01    0.419E-01
DAV:   4    -0.191623116502E+03    0.16011E-02   -0.36476E-03 11240   0.364E-01    0.117E-01
DAV:   5    -0.191623154977E+03   -0.38475E-04   -0.10236E-03  9960   0.207E-01    0.152E-01
DAV:   6    -0.191623041099E+03    0.11388E-03   -0.10006E-03 10280   0.226E-01    0.115E-01
DAV:   7    -0.191622972268E+03    0.68831E-04   -0.48438E-04  8640   0.143E-01
  15 F= -.19162297E+03 E0= -.19151273E+03  d E =0.263917E-01
       N       E                     dE             d eps       ncg     rms          rms(c)
DAV:   1    -0.191678736933E+03   -0.55696E-01   -0.39836E+00  8160   0.423E+00    0.466E-01
DAV:   2    -0.191695261220E+03   -0.16524E-01   -0.12467E-01 12320   0.138E+00    0.989E-01
DAV:   3    -0.191686242314E+03    0.90189E-02   -0.34331E-02 12240   0.131E+00    0.478E-01
DAV:   4    -0.191685526802E+03    0.71551E-03   -0.86765E-03 11720   0.568E-01    0.450E-01
DAV:   5    -0.191683734726E+03    0.17921E-02   -0.53107E-03 11280   0.500E-01    0.201E-01
DAV:   6    -0.191683513407E+03    0.22132E-03   -0.16597E-03 11720   0.202E-01    0.101E-01
DAV:   7    -0.191683366150E+03    0.14726E-03   -0.63312E-04 10560   0.115E-01    0.669E-02
DAV:   8    -0.191683344930E+03    0.21220E-04   -0.21164E-04  6800   0.101E-01
  16 F= -.19168334E+03 E0= -.19157603E+03  d E =-.603727E-01
       N       E                     dE             d eps       ncg     rms          rms(c)
DAV:   1    -0.191679377027E+03    0.39891E-02   -0.23261E-02  8160   0.330E-01    0.393E-02
DAV:   2    -0.191679494476E+03   -0.11745E-03   -0.79752E-04 12120   0.126E-01    0.917E-02
DAV:   3    -0.191679404285E+03    0.90191E-04   -0.23438E-04  7640   0.114E-01
  17 F= -.19167940E+03 E0= -.19157202E+03  d E =0.394064E-02
       N       E                     dE             d eps       ncg     rms          rms(c)
DAV:   1    -0.191706720449E+03   -0.27226E-01   -0.20598E+00  8160   0.307E+00    0.386E-01
DAV:   2    -0.191726138466E+03   -0.19418E-01   -0.80039E-02 13600   0.154E+00    0.133E+00
DAV:   3    -0.191708710086E+03    0.17428E-01   -0.35876E-02 12480   0.133E+00    0.250E-01
DAV:   4    -0.191708329744E+03    0.38034E-03   -0.35549E-03 11200   0.279E-01    0.181E-01
DAV:   5    -0.191708483386E+03   -0.15364E-03   -0.28250E-03 11680   0.326E-01    0.282E-01
DAV:   6    -0.191707870102E+03    0.61328E-03   -0.19779E-03  9840   0.296E-01    0.106E-01
DAV:   7    -0.191707801962E+03    0.68140E-04   -0.39178E-04  8200   0.104E-01
  18 F= -.19170780E+03 E0= -.19160358E+03  d E =-.283977E-01
       N       E                     dE             d eps       ncg     rms          rms(c)
DAV:   1    -0.191697468515E+03    0.10402E-01   -0.40288E-01  8160   0.137E+00    0.157E-01
DAV:   2    -0.191699430438E+03   -0.19619E-02   -0.12296E-02 13520   0.467E-01    0.390E-01
DAV:   3    -0.191697928424E+03    0.15020E-02   -0.44547E-03 11520   0.454E-01    0.148E-01
DAV:   4    -0.191697866867E+03    0.61557E-04   -0.10072E-03  9720   0.189E-01    0.121E-01
DAV:   5    -0.191697771804E+03    0.95063E-04   -0.57327E-04  8920   0.181E-01
  19 F= -.19169777E+03 E0= -.19159249E+03  d E =0.100302E-01
       N       E                     dE             d eps       ncg     rms          rms(c)
DAV:   1    -0.191688259764E+03    0.96071E-02   -0.13101E+01  8160   0.789E+00    0.985E-01
DAV:   2    -0.191762584056E+03   -0.74324E-01   -0.46476E-01 13440   0.298E+00    0.264E+00
DAV:   3    -0.191706613828E+03    0.55970E-01   -0.20710E-01 12040   0.292E+00    0.871E-01
DAV:   4    -0.191700473358E+03    0.61405E-02   -0.27439E-02 11720   0.893E-01    0.527E-01
DAV:   5    -0.191700038141E+03    0.43522E-03   -0.23588E-02 11760   0.912E-01    0.730E-01
DAV:   6    -0.191696550239E+03    0.34879E-02   -0.16623E-02 11800   0.846E-01    0.351E-01
DAV:   7    -0.191695045055E+03    0.15052E-02   -0.33281E-03 11520   0.302E-01    0.883E-02
DAV:   8    -0.191695013303E+03    0.31752E-04   -0.63295E-04 10200   0.152E-01
  20 F= -.19169501E+03 E0= -.19158646E+03  d E =0.275850E-02
       N       E                     dE             d eps       ncg     rms          rms(c)
DAV:   1    -0.191755302394E+03   -0.60257E-01   -0.54523E+00  8160   0.509E+00    0.707E-01
DAV:   2    -0.191783640053E+03   -0.28338E-01   -0.22614E-01 12240   0.214E+00    0.158E+00
DAV:   3    -0.191763071807E+03    0.20568E-01   -0.77289E-02 12120   0.193E+00    0.666E-01
DAV:   4    -0.191763330064E+03   -0.25826E-03   -0.23607E-02 12360   0.104E+00    0.775E-01
DAV:   5    -0.191757053231E+03    0.62768E-02   -0.14456E-02 11840   0.891E-01    0.270E-01
DAV:   6    -0.191756893590E+03    0.15964E-03   -0.50907E-03 11280   0.394E-01    0.261E-01
DAV:   7    -0.191756622222E+03    0.27137E-03   -0.33197E-03 11880   0.424E-01    0.235E-01
DAV:   8    -0.191756006835E+03    0.61539E-03   -0.11997E-03  9680   0.239E-01    0.455E-02
DAV:   9    -0.191755977967E+03    0.28869E-04   -0.10674E-04  6480   0.449E-02
  21 F= -.19175598E+03 E0= -.19165223E+03  d E =-.609647E-01
       N       E                     dE             d eps       ncg     rms          rms(c)
DAV:   1    -0.191788059862E+03   -0.32053E-01   -0.41332E+00  8160   0.438E+00    0.508E-01
DAV:   2    -0.191794527426E+03   -0.64676E-02   -0.11867E-01 11640   0.993E-01    0.510E-01
DAV:   3    -0.191797497073E+03   -0.29696E-02   -0.25552E-02 11800   0.111E+00    0.778E-01
DAV:   4    -0.191791989103E+03    0.55080E-02   -0.14981E-02 11360   0.877E-01    0.310E-01
DAV:   5    -0.191791161847E+03    0.82726E-03   -0.42039E-03 10360   0.406E-01    0.248E-01
DAV:   6    -0.191791255842E+03   -0.93995E-04   -0.32126E-03 12520   0.439E-01    0.256E-01
DAV:   7    -0.191790536020E+03    0.71982E-03   -0.15287E-03  9920   0.276E-01    0.105E-01
DAV:   8    -0.191790442976E+03    0.93043E-04   -0.32872E-04  8160   0.132E-01
  22 F= -.19179044E+03 E0= -.19169133E+03  d E =-.344650E-01
       N       E                     dE             d eps       ncg     rms          rms(c)
DAV:   1    -0.191839201124E+03   -0.48665E-01   -0.44997E+00  8160   0.449E+00    0.498E-01
DAV:   2    -0.191857572087E+03   -0.18371E-01   -0.15056E-01 13320   0.163E+00    0.100E+00
DAV:   3    -0.191848492975E+03    0.90791E-02   -0.34743E-02 12080   0.140E+00    0.506E-01
DAV:   4    -0.191846925706E+03    0.15673E-02   -0.98808E-03 12160   0.648E-01    0.397E-01
DAV:   5    -0.191845631043E+03    0.12947E-02   -0.53390E-03 11680   0.549E-01    0.240E-01
DAV:   6    -0.191845153163E+03    0.47788E-03   -0.21708E-03 11680   0.285E-01    0.122E-01
DAV:   7    -0.191845415345E+03   -0.26218E-03   -0.13623E-03 11320   0.268E-01    0.200E-01
DAV:   8    -0.191844966519E+03    0.44883E-03   -0.70320E-04  8760   0.215E-01    0.305E-02
DAV:   9    -0.191844964016E+03    0.25029E-05   -0.58960E-05  5760   0.365E-02
  23 F= -.19184496E+03 E0= -.19175020E+03  d E =-.545210E-01
       N       E                     dE             d eps       ncg     rms          rms(c)
DAV:   1    -0.191901762706E+03   -0.56796E-01   -0.71958E+00  8160   0.567E+00    0.593E-01
DAV:   2    -0.191925688802E+03   -0.23926E-01   -0.21802E-01 12080   0.179E+00    0.109E+00
DAV:   3    -0.191917553755E+03    0.81350E-02   -0.50800E-02 11440   0.164E+00    0.700E-01
DAV:   4    -0.191913497823E+03    0.40559E-02   -0.14661E-02 12440   0.815E-01    0.416E-01
DAV:   5    -0.191912089706E+03    0.14081E-02   -0.60741E-03 11400   0.620E-01    0.281E-01
DAV:   6    -0.191911439316E+03    0.65039E-03   -0.29883E-03 12560   0.358E-01    0.142E-01
DAV:   7    -0.191911422425E+03    0.16892E-04   -0.12965E-03 11720   0.219E-01    0.147E-01
DAV:   8    -0.191911195270E+03    0.22715E-03   -0.51831E-04  9120   0.188E-01    0.529E-02
DAV:   9    -0.191911163668E+03    0.31603E-04   -0.90304E-05  5960   0.630E-02
  24 F= -.19191116E+03 E0= -.19182131E+03  d E =-.661997E-01
       N       E                     dE             d eps       ncg     rms          rms(c)
DAV:   1    -0.191966888851E+03   -0.55694E-01   -0.85759E+00  8160   0.621E+00    0.677E-01
DAV:   2    -0.192001662300E+03   -0.34773E-01   -0.28139E-01 12200   0.224E+00    0.142E+00
DAV:   3    -0.191984706678E+03    0.16956E-01   -0.69906E-02 11880   0.195E+00    0.687E-01
DAV:   4    -0.191981481912E+03    0.32248E-02   -0.17610E-02 12400   0.915E-01    0.510E-01
DAV:   5    -0.191979141407E+03    0.23405E-02   -0.84415E-03 11280   0.754E-01    0.320E-01
DAV:   6    -0.191978225528E+03    0.91588E-03   -0.39683E-03 11960   0.396E-01    0.157E-01
DAV:   7    -0.191978371803E+03   -0.14627E-03   -0.18976E-03 12400   0.308E-01    0.213E-01
DAV:   8    -0.191977854394E+03    0.51741E-03   -0.85830E-04  9400   0.248E-01    0.455E-02
DAV:   9    -0.191977833514E+03    0.20880E-04   -0.90873E-05  6040   0.531E-02
  25 F= -.19197783E+03 E0= -.19189163E+03  d E =-.666698E-01
       N       E                     dE             d eps       ncg     rms          rms(c)
DAV:   1    -0.192030088445E+03   -0.52234E-01   -0.18974E+01  8160   0.922E+00    0.928E-01
DAV:   2    -0.192088488924E+03   -0.58400E-01   -0.57541E-01 11160   0.273E+00    0.159E+00
DAV:   3    -0.192075406599E+03    0.13082E-01   -0.12741E-01 11640   0.259E+00    0.113E+00
DAV:   4    -0.192062057680E+03    0.13349E-01   -0.30024E-02 12600   0.122E+00    0.500E-01
DAV:   5    -0.192060516346E+03    0.15413E-02   -0.11034E-02 11400   0.877E-01    0.455E-01
DAV:   6    -0.192059135198E+03    0.13811E-02   -0.76157E-03 12600   0.653E-01    0.260E-01
DAV:   7    -0.192058664913E+03    0.47028E-03   -0.31675E-03 12240   0.388E-01    0.224E-01
DAV:   8    -0.192058147164E+03    0.51775E-03   -0.12396E-03 10760   0.298E-01    0.815E-02
DAV:   9    -0.192058061382E+03    0.85782E-04   -0.19550E-04  6520   0.936E-02
  26 F= -.19205806E+03 E0= -.19197572E+03  d E =-.802279E-01
       N       E                     dE             d eps       ncg     rms          rms(c)
DAV:   1    -0.192068306477E+03   -0.10159E-01   -0.52024E-01  8160   0.156E+00    0.220E-01
DAV:   2    -0.192069625160E+03   -0.13187E-02   -0.20512E-02 11440   0.545E-01    0.312E-01
DAV:   3    -0.192069171724E+03    0.45344E-03   -0.45853E-03 12120   0.529E-01    0.253E-01
DAV:   4    -0.192068520327E+03    0.65140E-03   -0.17383E-03 10400   0.317E-01    0.140E-01
DAV:   5    -0.192068516448E+03    0.38789E-05   -0.10541E-03  9960   0.269E-01    0.149E-01
DAV:   6    -0.192068261043E+03    0.25540E-03   -0.56192E-04  9840   0.182E-01    0.473E-02
DAV:   7    -0.192068271232E+03   -0.10189E-04   -0.13310E-04  6440   0.985E-02
  27 F= -.19206827E+03 E0= -.19198573E+03  d E =-.102098E-01
       N       E                     dE             d eps       ncg     rms          rms(c)
DAV:   1    -0.192085684393E+03   -0.17423E-01   -0.11969E+00  8160   0.232E+00    0.240E-01
DAV:   2    -0.192088884639E+03   -0.32002E-02   -0.36448E-02 11200   0.636E-01    0.333E-01
DAV:   3    -0.192088793405E+03    0.91234E-04   -0.66144E-03 12360   0.625E-01    0.336E-01
DAV:   4    -0.192087567367E+03    0.12260E-02   -0.21095E-03 11240   0.340E-01    0.903E-02
DAV:   5    -0.192087598655E+03   -0.31287E-04   -0.67257E-04  9760   0.160E-01
  28 F= -.19208760E+03 E0= -.19200612E+03  d E =-.193274E-01
       N       E                     dE             d eps       ncg     rms          rms(c)
DAV:   1    -0.192105633656E+03   -0.18066E-01   -0.12088E+00  8160   0.236E+00    0.281E-01
DAV:   2    -0.192110810335E+03   -0.51767E-02   -0.40971E-02 12200   0.800E-01    0.538E-01
DAV:   3    -0.192108099035E+03    0.27113E-02   -0.80752E-03 12240   0.769E-01    0.257E-01
DAV:   4    -0.192107312687E+03    0.78635E-03   -0.12145E-03 11240   0.249E-01    0.856E-02
DAV:   5    -0.192107735066E+03   -0.42238E-03   -0.10429E-03 11360   0.266E-01    0.198E-01
DAV:   6    -0.192107308023E+03    0.42704E-03   -0.74911E-04 10560   0.226E-01    0.628E-02
DAV:   7    -0.192107277356E+03    0.30666E-04   -0.11680E-04  6120   0.927E-02
  29 F= -.19210728E+03 E0= -.19202664E+03  d E =-.196787E-01
       N       E                     dE             d eps       ncg     rms          rms(c)
DAV:   1    -0.192130382100E+03   -0.23074E-01   -0.21319E+00  8160   0.313E+00    0.348E-01
DAV:   2    -0.192135576500E+03   -0.51944E-02   -0.68212E-02 11840   0.783E-01    0.393E-01
DAV:   3    -0.192136311628E+03   -0.73513E-03   -0.10458E-02 12360   0.841E-01    0.496E-01
DAV:   4    -0.192133557905E+03    0.27537E-02   -0.39910E-03 11400   0.519E-01    0.126E-01
DAV:   5    -0.192133653431E+03   -0.95526E-04   -0.15038E-03 10440   0.225E-01    0.161E-01
DAV:   6    -0.192133709789E+03   -0.56358E-04   -0.14197E-03 11320   0.308E-01    0.175E-01
DAV:   7    -0.192133329745E+03    0.38004E-03   -0.49062E-04  8560   0.175E-01    0.222E-02
DAV:   8    -0.192133336948E+03   -0.72028E-05   -0.54232E-05  6680   0.381E-02
  30 F= -.19213334E+03 E0= -.19205417E+03  d E =-.260596E-01
       N       E                     dE             d eps       ncg     rms          rms(c)
DAV:   1    -0.192154041379E+03   -0.20712E-01   -0.17007E+00  8160   0.278E+00    0.307E-01
DAV:   2    -0.192158111591E+03   -0.40702E-02   -0.54407E-02 11080   0.758E-01    0.323E-01
DAV:   3    -0.192158722365E+03   -0.61077E-03   -0.71167E-03 11760   0.709E-01    0.411E-01
DAV:   4    -0.192156825426E+03    0.18969E-02   -0.29758E-03 10360   0.468E-01    0.141E-01
DAV:   5    -0.192156930458E+03   -0.10503E-03   -0.10617E-03 10160   0.280E-01    0.166E-01
DAV:   6    -0.192156720796E+03    0.20966E-03   -0.78268E-04 10680   0.235E-01    0.782E-02
DAV:   7    -0.192156618190E+03    0.10261E-03   -0.20275E-04  7080   0.903E-02    0.310E-02
DAV:   8    -0.192156619672E+03   -0.14817E-05   -0.66757E-05  7840   0.597E-02
  31 F= -.19215662E+03 E0= -.19207929E+03  d E =-.232827E-01
       N       E                     dE             d eps       ncg     rms          rms(c)
DAV:   1    -0.192171986497E+03   -0.15368E-01   -0.87685E-01  8160   0.201E+00    0.229E-01
DAV:   2    -0.192173929266E+03   -0.19428E-02   -0.29210E-02 11120   0.463E-01    0.190E-01
DAV:   3    -0.192174603072E+03   -0.67381E-03   -0.35167E-03 12200   0.493E-01    0.316E-01
DAV:   4    -0.192173444921E+03    0.11582E-02   -0.16604E-03 10400   0.364E-01    0.101E-01
DAV:   5    -0.192173533868E+03   -0.88947E-04   -0.60335E-04  9840   0.209E-01
  32 F= -.19217353E+03 E0= -.19209769E+03  d E =-.169142E-01
       N       E                     dE             d eps       ncg     rms          rms(c)
DAV:   1    -0.192183629374E+03   -0.10184E-01   -0.37583E-01  8160   0.132E+00    0.174E-01
DAV:   2    -0.192185129109E+03   -0.14997E-02   -0.13028E-02 11200   0.487E-01    0.294E-01
DAV:   3    -0.192184245850E+03    0.88326E-03   -0.25523E-03 12240   0.445E-01    0.145E-01
DAV:   4    -0.192184140151E+03    0.10570E-03   -0.63085E-04  9040   0.200E-01    0.120E-01
DAV:   5    -0.192184046317E+03    0.93834E-04   -0.45108E-04  9280   0.191E-01
  33 F= -.19218405E+03 E0= -.19210913E+03  d E =-.105124E-01
       N       E                     dE             d eps       ncg     rms          rms(c)
DAV:   1    -0.192205587871E+03   -0.21448E-01   -0.21603E+00  8160   0.315E+00    0.383E-01
DAV:   2    -0.192212139899E+03   -0.65520E-02   -0.74913E-02 11600   0.962E-01    0.494E-01
DAV:   3    -0.192210579870E+03    0.15600E-02   -0.11570E-02 12120   0.904E-01    0.405E-01
DAV:   4    -0.192209070254E+03    0.15096E-02   -0.39316E-03 10160   0.507E-01    0.227E-01
DAV:   5    -0.192208753508E+03    0.31675E-03   -0.17625E-03 10680   0.368E-01    0.189E-01
DAV:   6    -0.192208587596E+03    0.16591E-03   -0.12430E-03 10800   0.284E-01    0.118E-01
DAV:   7    -0.192208403354E+03    0.18424E-03   -0.44967E-04  9680   0.134E-01    0.513E-02
DAV:   8    -0.192208385181E+03    0.18173E-04   -0.88183E-05  7840   0.812E-02
  34 F= -.19220839E+03 E0= -.19213554E+03  d E =-.243389E-01
       N       E                     dE             d eps       ncg     rms          rms(c)
DAV:   1    -0.192237793849E+03   -0.29390E-01   -0.11461E+01  8160   0.727E+00    0.834E-01
DAV:   2    -0.192267576792E+03   -0.29783E-01   -0.39283E-01 11720   0.179E+00    0.854E-01
DAV:   3    -0.192269260616E+03   -0.16838E-02   -0.50844E-02 12280   0.187E+00    0.103E+00
DAV:   4    -0.192257713113E+03    0.11548E-01   -0.21140E-02 12120   0.125E+00    0.434E-01
DAV:   5    -0.192257070614E+03    0.64250E-03   -0.78850E-03 11080   0.771E-01    0.421E-01
DAV:   6    -0.192256137749E+03    0.93287E-03   -0.58748E-03 11160   0.631E-01    0.262E-01
DAV:   7    -0.192255002567E+03    0.11352E-02   -0.21576E-03 12400   0.279E-01    0.609E-02
DAV:   8    -0.192255021739E+03   -0.19172E-04   -0.30124E-04  9960   0.118E-01
  35 F= -.19225502E+03 E0= -.19218611E+03  d E =-.466366E-01
       N       E                     dE             d eps       ncg     rms          rms(c)
DAV:   1    -0.192264600378E+03   -0.95978E-02   -0.98005E+00  8160   0.669E+00    0.803E-01
DAV:   2    -0.192297613173E+03   -0.33013E-01   -0.36578E-01 11960   0.223E+00    0.109E+00
DAV:   3    -0.192288554187E+03    0.90590E-02   -0.51582E-02 12280   0.192E+00    0.777E-01
DAV:   4    -0.192282204521E+03    0.63497E-02   -0.15709E-02 11680   0.996E-01    0.431E-01
DAV:   5    -0.192281341134E+03    0.86339E-03   -0.66980E-03 12200   0.741E-01    0.391E-01
DAV:   6    -0.192280440279E+03    0.90085E-03   -0.50568E-03 12120   0.569E-01    0.223E-01
DAV:   7    -0.192279612191E+03    0.82809E-03   -0.18648E-03 12680   0.231E-01    0.503E-02
DAV:   8    -0.192279580603E+03    0.31588E-04   -0.19150E-04  8160   0.605E-02
  36 F= -.19227958E+03 E0= -.19221337E+03  d E =-.245589E-01
       N       E                     dE             d eps       ncg     rms          rms(c)
DAV:   1    -0.192270301509E+03    0.93107E-02   -0.28694E+00  8160   0.364E+00    0.430E-01
DAV:   2    -0.192279286958E+03   -0.89854E-02   -0.87114E-02 11360   0.120E+00    0.668E-01
DAV:   3    -0.192274739968E+03    0.45470E-02   -0.15423E-02 12520   0.109E+00    0.356E-01
DAV:   4    -0.192273112656E+03    0.16273E-02   -0.31374E-03 12000   0.397E-01    0.163E-01
DAV:   5    -0.192273122773E+03   -0.10117E-04   -0.17084E-03 12040   0.293E-01    0.202E-01
DAV:   6    -0.192273076583E+03    0.46190E-04   -0.15931E-03 10920   0.359E-01    0.181E-01
DAV:   7    -0.192272628685E+03    0.44790E-03   -0.56205E-04  9840   0.184E-01    0.210E-02
DAV:   8    -0.192272639741E+03   -0.11056E-04   -0.61268E-05  6880   0.430E-02
  37 F= -.19227264E+03 E0= -.19220536E+03  d E =0.694086E-02
       N       E                     dE             d eps       ncg     rms          rms(c)
DAV:   1    -0.192281562260E+03   -0.89336E-02   -0.24913E+00  8160   0.337E+00    0.394E-01
DAV:   2    -0.192289220245E+03   -0.76580E-02   -0.85653E-02 11400   0.979E-01    0.525E-01
DAV:   3    -0.192287325092E+03    0.18952E-02   -0.13162E-02 12440   0.960E-01    0.414E-01
DAV:   4    -0.192285713657E+03    0.16114E-02   -0.41809E-03 11920   0.532E-01    0.238E-01
DAV:   5    -0.192285298115E+03    0.41554E-03   -0.18684E-03 11000   0.385E-01    0.183E-01
DAV:   6    -0.192285142288E+03    0.15583E-03   -0.12287E-03 10440   0.269E-01    0.115E-01
DAV:   7    -0.192284933130E+03    0.20916E-03   -0.43921E-04 10160   0.118E-01    0.324E-02
DAV:   8    -0.192284936913E+03   -0.37829E-05   -0.68333E-05  8000   0.680E-02
  38 F= -.19228494E+03 E0= -.19221899E+03  d E =-.122972E-01
       N       E                     dE             d eps       ncg     rms          rms(c)
DAV:   1    -0.192288300080E+03   -0.33669E-02   -0.29573E-01  8160   0.117E+00    0.163E-01
DAV:   2    -0.192289660576E+03   -0.13605E-02   -0.14123E-02 11880   0.500E-01    0.262E-01
DAV:   3    -0.192288979774E+03    0.68080E-03   -0.22841E-03 12280   0.414E-01    0.134E-01
DAV:   4    -0.192288812664E+03    0.16711E-03   -0.58510E-04  9120   0.191E-01    0.968E-02
DAV:   5    -0.192288781358E+03    0.31305E-04   -0.35450E-04  9200   0.170E-01
  39 F= -.19228878E+03 E0= -.19222343E+03  d E =-.384445E-02
       N       E                     dE             d eps       ncg     rms          rms(c)
DAV:   1    -0.192292989930E+03   -0.41773E-02   -0.11509E+00  8160   0.229E+00    0.286E-01
DAV:   2    -0.192297270970E+03   -0.42810E-02   -0.45640E-02 12160   0.820E-01    0.423E-01
DAV:   3    -0.192295738626E+03    0.15323E-02   -0.66800E-03 12320   0.704E-01    0.263E-01
DAV:   4    -0.192295102094E+03    0.63653E-03   -0.18874E-03 11560   0.354E-01    0.178E-01
DAV:   5    -0.192294909178E+03    0.19292E-03   -0.10045E-03 11280   0.290E-01    0.130E-01
DAV:   6    -0.192294815974E+03    0.93204E-04   -0.58417E-04 10440   0.168E-01
  40 F= -.19229482E+03 E0= -.19223033E+03  d E =-.603462E-02
       N       E                     dE             d eps       ncg     rms          rms(c)
DAV:   1    -0.192294714859E+03    0.19432E-03   -0.44635E-02  8240   0.467E-01    0.934E-02
DAV:   2    -0.192295119109E+03   -0.40425E-03   -0.27808E-03 11120   0.311E-01    0.206E-01
DAV:   3    -0.192294648822E+03    0.47029E-03   -0.93532E-04 10520   0.265E-01    0.649E-02
DAV:   4    -0.192294617665E+03    0.31157E-04   -0.19872E-04  8000   0.115E-01
  41 F= -.19229462E+03 E0= -.19223001E+03  d E =0.198310E-03
       N       E                     dE             d eps       ncg     rms          rms(c)
DAV:   1    -0.192295995876E+03   -0.13471E-02   -0.98631E-02  8160   0.681E-01    0.902E-02
DAV:   2    -0.192296554475E+03   -0.55860E-03   -0.46958E-03 12160   0.271E-01    0.158E-01
DAV:   3    -0.192296254666E+03    0.29981E-03   -0.76047E-04 11440   0.247E-01    0.723E-02
DAV:   4    -0.192296191849E+03    0.62817E-04   -0.92738E-05  6640   0.797E-02
  42 F= -.19229619E+03 E0= -.19223170E+03  d E =-.157418E-02
       N       E                     dE             d eps       ncg     rms          rms(c)
DAV:   1    -0.192296797960E+03   -0.54329E-03   -0.13410E-02  8240   0.256E-01    0.579E-02
DAV:   2    -0.192297296621E+03   -0.49866E-03   -0.12257E-03 11760   0.263E-01    0.206E-01
DAV:   3    -0.192296783403E+03    0.51322E-03   -0.59011E-04  9440   0.227E-01    0.243E-02
DAV:   4    -0.192296797509E+03   -0.14106E-04   -0.36666E-05  6000   0.448E-02
  43 F= -.19229680E+03 E0= -.19223237E+03  d E =-.605659E-03
       N       E                     dE             d eps       ncg     rms          rms(c)
DAV:   1    -0.192298751079E+03   -0.19677E-02   -0.26595E-01  8160   0.111E+00    0.160E-01
DAV:   2    -0.192300011509E+03   -0.12604E-02   -0.11709E-02 11960   0.503E-01    0.284E-01
DAV:   3    -0.192299106047E+03    0.90546E-03   -0.19803E-03 12520   0.407E-01    0.109E-01
DAV:   4    -0.192299007759E+03    0.98288E-04   -0.44797E-04  9200   0.167E-01
  44 F= -.19229901E+03 E0= -.19223520E+03  d E =-.221025E-02
       N       E                     dE             d eps       ncg     rms          rms(c)
DAV:   1    -0.192301062679E+03   -0.19566E-02   -0.64465E-01  8160   0.173E+00    0.251E-01
DAV:   2    -0.192303482040E+03   -0.24194E-02   -0.29079E-02 12680   0.649E-01    0.365E-01
DAV:   3    -0.192302538429E+03    0.94361E-03   -0.47725E-03 12520   0.623E-01    0.262E-01
DAV:   4    -0.192301838464E+03    0.69996E-03   -0.16784E-03 11560   0.339E-01    0.136E-01
DAV:   5    -0.192301792678E+03    0.45786E-04   -0.97218E-04 11120   0.258E-01
  45 F= -.19230179E+03 E0= -.19223887E+03  d E =-.278492E-02
       N       E                     dE             d eps       ncg     rms          rms(c)
DAV:   1    -0.192301148422E+03    0.69004E-03   -0.14569E-01  8160   0.868E-01    0.141E-01
DAV:   2    -0.192302085721E+03   -0.93730E-03   -0.79682E-03 11640   0.446E-01    0.263E-01
DAV:   3    -0.192301203452E+03    0.88227E-03   -0.18851E-03 11560   0.378E-01    0.955E-02
DAV:   4    -0.192301101141E+03    0.10231E-03   -0.45350E-04 10000   0.152E-01    0.784E-02
DAV:   5    -0.192301042673E+03    0.58467E-04   -0.26704E-04  7440   0.114E-01
  46 F= -.19230104E+03 E0= -.19223756E+03  d E =0.750005E-03
       N       E                     dE             d eps       ncg     rms          rms(c)
DAV:   1    -0.192302009248E+03   -0.90811E-03   -0.19194E-01  8160   0.937E-01    0.112E-01
DAV:   2    -0.192302899967E+03   -0.89072E-03   -0.84197E-03 11640   0.322E-01    0.184E-01
DAV:   3    -0.192302606220E+03    0.29375E-03   -0.11977E-03 12040   0.304E-01    0.119E-01
DAV:   4    -0.192302470658E+03    0.13556E-03   -0.31860E-04  8760   0.146E-01    0.564E-02
DAV:   5    -0.192302437120E+03    0.33537E-04   -0.11332E-04  6680   0.876E-02
  47 F= -.19230244E+03 E0= -.19223933E+03  d E =-.139445E-02
       N       E                     dE             d eps       ncg     rms          rms(c)
DAV:   1    -0.192302916530E+03   -0.44587E-03   -0.30659E-02  8160   0.381E-01    0.626E-02
DAV:   2    -0.192303289189E+03   -0.37266E-03   -0.18758E-03 12840   0.224E-01    0.154E-01
DAV:   3    -0.192302980980E+03    0.30821E-03   -0.46755E-04  9200   0.196E-01    0.370E-02
DAV:   4    -0.192302991634E+03   -0.10655E-04   -0.66730E-05  6080   0.644E-02
  48 F= -.19230299E+03 E0= -.19223990E+03  d E =-.554514E-03
