unknown system                          
           1
     8.852333    5.102975    0.000000
    -8.856288    5.109780    0.000000
     0.000000    0.000000   30.000000
   V    Mo   W    S 
   3   3   3  18
Direct configuration=     1
   0.00000000  0.00000000  0.00000000
   0.33333334  0.00000000  0.00000000
   0.66666669  0.00000000  0.00000000
   0.66666669  0.33333334  0.00000000
   0.33333334  0.33333334  0.00000000
   0.66666669  0.66666669  0.00000000
   1.00000000  0.33333334  0.00000000
   0.00000000  0.66666669  0.00000000
   0.33333334  0.66666669  0.00000000
   0.11068511  0.22244981  0.95539999
   0.22244981  0.11068511  0.04460000
   0.11068511  0.55578315  0.95539999
   0.22244981  0.44401845  0.04460000
   0.11068511  0.88911647  0.95539999
   0.22244981  0.77735180  0.04460000
   0.44401845  0.22244981  0.95539999
   0.55578315  0.11068511  0.04460000
   0.44401845  0.55578315  0.95539999
   0.55578315  0.44401845  0.04460000
   0.44401845  0.88911647  0.95539999
   0.55578315  0.77735180  0.04460000
   0.77735180  0.22244981  0.95539999
   0.88911647  0.11068511  0.04460000
   0.77735180  0.55578315  0.95539999
   0.88911647  0.44401845  0.04460000
   0.77735180  0.88911647  0.95539999
   0.88911647  0.77735180  0.04460000
unknown system                          
           1
     8.664430    4.997033    0.000000
    -8.667801    5.002829    0.000000
     0.000000    0.000000   30.000000
   V    Mo   W    S 
   3   3   3  18
Direct configuration=     2
  -0.00003832 -0.00009127 -0.00004253
   0.33451071  0.00244836  0.00009106
   0.66663454 -0.00008515 -0.00004475
   0.66513886  0.33458079  0.00022026
   0.33599438  0.33444565  0.00021286
   0.66543575  0.66412156 -0.00027952
   0.99977954  0.33283033  0.00014757
  -0.00286319  0.66571622 -0.00018369
   0.33513161  0.66559775 -0.00019317
   0.10840084  0.21810407  0.95200146
   0.22019544  0.10661631  0.04686595
   0.11119673  0.55568775  0.95069394
   0.22156861  0.44458737  0.04928856
   0.11251817  0.89227539  0.95312416
   0.22386628  0.78135740  0.04796668
   0.44213121  0.21758566  0.95191499
   0.55346560  0.10660887  0.04686059
   0.44399860  0.55615215  0.95068942
   0.55536485  0.44413488  0.04933095
   0.44585584  0.89228078  0.95312937
   0.55672937  0.78177337  0.04805461
   0.77644099  0.21812162  0.95201462
   0.88729878  0.10756987  0.04690377
   0.77878574  0.55617042  0.95069237
   0.88954502  0.44460655  0.04929369
   0.77964684  0.89322233  0.95317880
   0.89148168  0.78179541  0.04806785
unknown system                          
           1
     8.482830    4.897545    0.000000
    -8.486032    4.903054    0.000000
     0.000000    0.000000   30.000000
   V    Mo   W    S 
   3   3   3  18
Direct configuration=     3
  -0.00004846 -0.00009646 -0.00009300
   0.33486883  0.00315546  0.00015382
   0.66663960 -0.00009276 -0.00009552
   0.66495213  0.33546108  0.00024131
   0.33705957  0.33533342  0.00023167
   0.66481533  0.66288242 -0.00029201
   0.99993863  0.33312697  0.00009723
  -0.00389548  0.66502679 -0.00013934
   0.33546304  0.66490979 -0.00015217
   0.10824382  0.21813285  0.95209846
   0.22015291  0.10654506  0.04683513
   0.11119330  0.55572213  0.95075865
   0.22148577  0.44468792  0.04931168
   0.11244646  0.89210854  0.95320093
   0.22379305  0.78116261  0.04774855
   0.44204151  0.21743882  0.95184844
   0.55339162  0.10653960  0.04682705
   0.44388121  0.55625187  0.95052772
   0.55537942  0.44415091  0.04955777
   0.44580104  0.89210927  0.95320947
   0.55658423  0.78175186  0.04801364
   0.77658913  0.21814675  0.95211126
   0.88735209  0.10772154  0.04687647
   0.77897807  0.55626953  0.95052626
   0.88976126  0.44470614  0.04931257
   0.77970327  0.89329047  0.95325674
   0.89164311  0.78177187  0.04802712
unknown system                          
           1
     8.263429    4.770462    0.000000
    -8.277539    4.794865    0.000000
     0.000000    0.000000   30.000000
   V    Mo   W    S 
   3   3   3  18
Direct configuration=     4
  -0.00011013 -0.00010082 -0.00026598
   0.33613484  0.00564395  0.00034312
   0.66668220 -0.00009017 -0.00026859
   0.66495659  0.33958153  0.00021046
   0.34118520  0.33946986  0.00020324
   0.66215309  0.65754762 -0.00023473
   1.00094522  0.33509827 -0.00014102
  -0.00795903  0.66167093  0.00008696
   0.33611198  0.66159596  0.00007377
   0.10799536  0.21724467  0.95106225
   0.21964846  0.10573951  0.04800950
   0.11125635  0.55598904  0.94937438
   0.22156298  0.44456293  0.05104322
   0.11299872  0.89294957  0.95217338
   0.22417890  0.78176584  0.04829449
   0.44143160  0.21627529  0.95019739
   0.55292297  0.10575887  0.04799452
   0.44390240  0.55606815  0.94823652
   0.55549050  0.44432530  0.05205926
   0.44623802  0.89293566  0.95218600
   0.55740058  0.78275340  0.04930078
   0.77583138  0.21726858  0.95107748
   0.88678260  0.10673123  0.04812886
   0.77870824  0.55607051  0.94822440
   0.88965316  0.44457024  0.05102913
   0.78015992  0.89401284  0.95228765
   0.89195238  0.78277570  0.04931347
unknown system                          
           1
     8.263722    4.771170    0.000000
    -8.291840    4.819842    0.000000
     0.000000    0.000000   30.000000
   V    Mo   W    S 
   3   3   3  18
Direct configuration=     5
  -0.00014265 -0.00012502 -0.00049531
   0.33883754  0.01101010  0.00058531
   0.66665130 -0.00012584 -0.00049676
   0.66570218  0.34784567  0.00007032
   0.34865815  0.34775443  0.00008326
   0.65710078  0.64740511 -0.00005233
   1.00321180  0.33950925 -0.00047756
  -0.01680833  0.65459382  0.00035882
   0.33780458  0.65454535  0.00037171
   0.10898084  0.21698446  0.94985297
   0.21969825  0.10619159  0.04968042
   0.11175852  0.55703248  0.94756399
   0.22181497  0.44346733  0.05354084
   0.11331966  0.89318858  0.95089457
   0.22418995  0.78175440  0.04852939
   0.44134361  0.21607296  0.94797710
   0.55307791  0.10622087  0.04967174
   0.44457273  0.55570399  0.94484354
   0.55547765  0.44434223  0.05582414
   0.44640337  0.89317886  0.95090033
   0.55866190  0.78307137  0.05090551
   0.77459476  0.21702475  0.94987828
   0.88632803  0.10604872  0.04974692
   0.77771243  0.55570230  0.94482384
   0.88832193  0.44347123  0.05352324
   0.77990760  0.89323590  0.95096319
   0.89103498  0.78310959  0.05093242
unknown system                          
           1
     8.258859    4.768335    0.000000
    -8.287237    4.817457    0.000000
     0.000000    0.000000   30.000000
   V    Mo   W    S 
   3   3   3  18
Direct configuration=     6
  -0.00006481 -0.00025546 -0.00057302
   0.34014430  0.01362909  0.00068922
   0.66642573 -0.00025971 -0.00057935
   0.66614719  0.34796600  0.00024694
   0.34828733  0.34789477  0.00024571
   0.65731100  0.64782286 -0.00015035
   1.00389843  0.34084468 -0.00040200
  -0.01907432  0.65302197  0.00022624
   0.33852687  0.65294922  0.00021989
   0.10994911  0.21796595  0.95006300
   0.22024990  0.10736512  0.04962027
   0.11217722  0.55783961  0.94761179
   0.22186501  0.44271305  0.05372571
   0.11299856  0.89233119  0.95113619
   0.22360834  0.78063332  0.04786730
   0.44189909  0.21719532  0.94792492
   0.55372436  0.10740125  0.04961418
   0.44515667  0.55591055  0.94458498
   0.55523848  0.44385856  0.05603634
   0.44586608  0.89232269  0.95114165
   0.55871349  0.78193290  0.05083956
   0.77463533  0.21800790  0.95009191
   0.88661425  0.10661005  0.04959952
   0.77732478  0.55590275  0.94455595
   0.88750394  0.44272146  0.05369334
   0.77924563  0.89192708  0.95110948
   0.88984252  0.78196228  0.05086052
unknown system                          
           1
     8.264968    4.771865    0.000000
    -8.297718    4.828559    0.000000
     0.000000    0.000000   30.000000
   V    Mo   W    S 
   3   3   3  18
Direct configuration=     7
  -0.00007283 -0.00058986 -0.00068191
   0.34176492  0.01687988  0.00074971
   0.66608373 -0.00060235 -0.00069068
   0.66652510  0.34905257  0.00023947
   0.34894321  0.34898207  0.00024494
   0.65681366  0.64682458 -0.00007866
   1.00479396  0.34255307 -0.00040706
  -0.02210093  0.65094373  0.00023641
   0.33947596  0.65085540  0.00023708
   0.11038139  0.21845333  0.95022042
   0.22049534  0.10807356  0.04971134
   0.11242636  0.55832188  0.94759322
   0.22190834  0.44237423  0.05400283
   0.11285563  0.89174684  0.95133089
   0.22326244  0.77995353  0.04715432
   0.44220305  0.21780407  0.94779935
   0.55418671  0.10811289  0.04970736
   0.44544538  0.55567245  0.94419980
   0.55518846  0.44378069  0.05629324
   0.44543863  0.89173724  0.95133465
   0.55872246  0.78124512  0.05086408
   0.77471188  0.21850248  0.95025775
   0.88678719  0.10696495  0.04950467
   0.77680874  0.55565645  0.94417882
   0.88710374  0.44236687  0.05396520
   0.77892624  0.89127500  0.95114739
   0.88913569  0.78127376  0.05088527
unknown system                          
           1
     8.265828    4.773044    0.000000
    -8.306075    4.842730    0.000000
     0.000000    0.000000   30.000000
   V    Mo   W    S 
   3   3   3  18
Direct configuration=     8
  -0.00017913 -0.00118368 -0.00082223
   0.34374048  0.02074390  0.00088150
   0.66551567 -0.00122570 -0.00083727
   0.66680300  0.34973681  0.00028658
   0.34930580  0.34968630  0.00029367
   0.65652930  0.64629182 -0.00010446
   1.00570970  0.34431430 -0.00038837
  -0.02511745  0.64906349  0.00021511
   0.34067421  0.64901048  0.00021695
   0.11068911  0.21895600  0.95046066
   0.22072786  0.10877289  0.04975549
   0.11274431  0.55894115  0.94766773
   0.22189196  0.44194730  0.05425416
   0.11278511  0.89112343  0.95163952
   0.22292097  0.77928240  0.04618810
   0.44253464  0.21847506  0.94765831
   0.55466952  0.10879590  0.04974618
   0.44582255  0.55543670  0.94386228
   0.55506967  0.44357115  0.05646448
   0.44492353  0.89113165  0.95164741
   0.55867405  0.78048673  0.05088714
   0.77491706  0.21898206  0.95051820
   0.88693826  0.10730467  0.04930235
   0.77620534  0.55541406  0.94384444
   0.88667468  0.44192321  0.05420505
   0.77864343  0.89074993  0.95124529
   0.88840080  0.78048244  0.05091165
unknown system                          
           1
     8.279273    4.780457    0.000000
    -8.318910    4.849082    0.000000
     0.000000    0.000000   30.000000
   V    Mo   W    S 
   3   3   3  18
Direct configuration=     9
  -0.00065900 -0.00313659 -0.00111853
   0.34755682  0.02847847  0.00123559
   0.66397826 -0.00327649 -0.00114268
   0.66701425  0.35097555  0.00036037
   0.35014844  0.35089244  0.00036581
   0.65609097  0.64539347 -0.00018941
   1.00767877  0.34789709 -0.00032650
  -0.03060979  0.64608610  0.00021871
   0.34316544  0.64598883  0.00021579
   0.11078085  0.21960265  0.95105967
   0.22098593  0.10992175  0.04982355
   0.11336714  0.56012196  0.94794942
   0.22183909  0.44126975  0.05464276
   0.11291621  0.89015483  0.95235257
   0.22249440  0.77841973  0.04399591
   0.44315047  0.21972861  0.94734066
   0.55559519  0.10996985  0.04982690
   0.44646312  0.55475948  0.94325805
   0.55487735  0.44322320  0.05669468
   0.44380932  0.89013983  0.95234342
   0.55847962  0.77905968  0.05098362
   0.77551761  0.21967097  0.95113988
   0.88717269  0.10777081  0.04876389
   0.77488386  0.55472335  0.94324772
   0.88600450  0.44119462  0.05456714
   0.77834767  0.89014458  0.95140479
   0.88716527  0.77903993  0.05098613
unknown system                          
           1
     8.277980    4.779847    0.000000
    -8.318400    4.849829    0.000000
     0.000000    0.000000   30.000000
   V    Mo   W    S 
   3   3   3  18
Direct configuration=    10
  -0.00099036 -0.00390280 -0.00111144
   0.34746530  0.02827508  0.00127528
   0.66349724 -0.00409514 -0.00114208
   0.66674651  0.35090168  0.00033068
   0.35028342  0.35079918  0.00033572
   0.65619659  0.64560501 -0.00023863
   1.00787907  0.34818103 -0.00028333
  -0.03016496  0.64657005  0.00019335
   0.34322502  0.64650153  0.00019116
   0.11059811  0.21945555  0.95112970
   0.22089826  0.11003648  0.04986837
   0.11343150  0.56025102  0.94794405
   0.22186416  0.44127104  0.05467843
   0.11314320  0.89026884  0.95237020
   0.22264543  0.77872188  0.04380716
   0.44323143  0.21988926  0.94728090
   0.55577606  0.11008996  0.04986209
   0.44648366  0.55462387  0.94322434
   0.55488539  0.44326086  0.05672312
   0.44369225  0.89025192  0.95236332
   0.55852060  0.77903657  0.05108322
   0.77556984  0.21954131  0.95122656
   0.88712886  0.10766398  0.04868334
   0.77473775  0.55458848  0.94321273
   0.88597698  0.44118798  0.05458659
   0.77839782  0.89020973  0.95131996
   0.88709534  0.77903010  0.05108512
unknown system                          
           1
     8.281732    4.782154    0.000000
    -8.322412    4.852591    0.000000
     0.000000    0.000000   30.000000
   V    Mo   W    S 
   3   3   3  18
Direct configuration=    11
  -0.00148731 -0.00519152 -0.00114829
   0.34828944  0.02994393  0.00140575
   0.66264358 -0.00547501 -0.00118826
   0.66653305  0.35123678  0.00033121
   0.35070960  0.35110368  0.00033780
   0.65620574  0.64560847 -0.00026905
   1.00857357  0.34934394 -0.00024456
  -0.03126446  0.64617067  0.00018076
   0.34392439  0.64609629  0.00017800
   0.11047156  0.21948921  0.95137894
   0.22092375  0.11037578  0.04985474
   0.11358283  0.56054039  0.94802921
   0.22194094  0.44123194  0.05471202
   0.11334012  0.89017367  0.95253623
   0.22268584  0.77880297  0.04319698
   0.44340446  0.22024292  0.94722626
   0.55609078  0.11043902  0.04984397
   0.44658261  0.55442082  0.94314066
   0.55487427  0.44326935  0.05671470
   0.44339465  0.89015292  0.95252511
   0.55845906  0.77866911  0.05114102
   0.77575226  0.21959199  0.95150097
   0.88714509  0.10768829  0.04845558
   0.77443934  0.55438285  0.94312939
   0.88584951  0.44112278  0.05460063
   0.77836491  0.89012479  0.95129520
   0.88678487  0.77865846  0.05113491
unknown system                          
           1
     8.282217    4.782500    0.000000
    -8.323128    4.853338    0.000000
     0.000000    0.000000   30.000000
   V    Mo   W    S 
   3   3   3  18
Direct configuration=    12
  -0.00201135 -0.00638328 -0.00115068
   0.34869343  0.03076078  0.00149529
   0.66191020 -0.00676600 -0.00119989
   0.66630219  0.35141564  0.00032123
   0.35100186  0.35125233  0.00032933
   0.65632672  0.64583688 -0.00029917
   1.00909789  0.35017334 -0.00021829
  -0.03169353  0.64610660  0.00016318
   0.34428800  0.64603040  0.00015991
   0.11035573  0.21943986  0.95156168
   0.22091877  0.11060591  0.04984440
   0.11369129  0.56074776  0.94804978
   0.22203158  0.44125988  0.05473638
   0.11352079  0.89018091  0.95259805
   0.22276738  0.77896628  0.04285281
   0.44350970  0.22045915  0.94718852
   0.55632999  0.11067347  0.04982570
   0.44664572  0.55431082  0.94308841
   0.55488634  0.44332380  0.05672229
   0.44322147  0.89015967  0.95258401
   0.55843637  0.77848467  0.05121980
   0.77583460  0.21954878  0.95171284
   0.88712981  0.10766252  0.04829751
   0.77427026  0.55427120  0.94307667
   0.88577731  0.44112478  0.05460486
   0.77835784  0.89010594  0.95122686
   0.88661408  0.77846236  0.05120841
unknown system                          
           1
     8.276218    4.778851    0.000000
    -8.317767    4.850792    0.000000
     0.000000    0.000000   30.000000
   V    Mo   W    S 
   3   3   3  18
Direct configuration=    13
  -0.00231326 -0.00701047 -0.00114768
   0.34885460  0.03108396  0.00153514
   0.66154372 -0.00745402 -0.00120208
   0.66620471  0.35153278  0.00031572
   0.35114931  0.35135130  0.00032464
   0.65640153  0.64597865 -0.00031293
   1.00937002  0.35059279 -0.00020701
  -0.03184970  0.64607758  0.00015305
   0.34441505  0.64600272  0.00014969
   0.11030303  0.21941188  0.95165524
   0.22091212  0.11072099  0.04983578
   0.11374604  0.56085180  0.94805170
   0.22207700  0.44128126  0.05474764
   0.11359029  0.89018074  0.95261788
   0.22279813  0.77902990  0.04271118
   0.44356069  0.22056440  0.94717201
   0.55645316  0.11079090  0.04981310
   0.44668041  0.55427106  0.94306637
   0.55489922  0.44336596  0.05672510
   0.44315059  0.89015847  0.95260147
   0.55841633  0.77840530  0.05126187
   0.77586892  0.21952435  0.95182316
   0.88712829  0.10766084  0.04822012
   0.77419864  0.55423082  0.94305456
   0.88574762  0.44113212  0.05460451
   0.77835810  0.89010115  0.95118271
   0.88654988  0.77837722  0.05124696
unknown system                          
           1
     8.288182    4.786187    0.000000
    -8.329571    4.857854    0.000000
     0.000000    0.000000   30.000000
   V    Mo   W    S 
   3   3   3  18
Direct configuration=    14
  -0.00182231 -0.00620397 -0.00117806
   0.34870918  0.03097011  0.00150148
   0.66208171 -0.00642330 -0.00121429
   0.66641140  0.35150251  0.00032480
   0.35099146  0.35134371  0.00033073
   0.65620971  0.64553315 -0.00030897
   1.00911938  0.35023442 -0.00022510
  -0.03196235  0.64598559  0.00017355
   0.34430923  0.64578408  0.00016385
   0.11032146  0.21948337  0.95158443
   0.22088094  0.11066836  0.04987797
   0.11368519  0.56072143  0.94810654
   0.22200097  0.44119040  0.05473576
   0.11353437  0.89018375  0.95264948
   0.22274557  0.77891090  0.04271263
   0.44357158  0.22057779  0.94715285
   0.55639378  0.11076808  0.04987366
   0.44664371  0.55420251  0.94306479
   0.55485551  0.44325232  0.05672125
   0.44311908  0.89010919  0.95262482
   0.55846332  0.77836327  0.05122044
   0.77595400  0.21969305  0.95169612
   0.88719690  0.10768132  0.04829025
   0.77416070  0.55416570  0.94305445
   0.88574253  0.44106142  0.05460513
   0.77838592  0.89003702  0.95126324
   0.88651149  0.77841826  0.05119812
unknown system                          
           1
     8.289709    4.787057    0.000000
    -8.331025    4.858599    0.000000
     0.000000    0.000000   30.000000
   V    Mo   W    S 
   3   3   3  18
Direct configuration=    15
  -0.00333743 -0.00911009 -0.00113578
   0.34943237  0.03218936  0.00166768
   0.66028404 -0.00979355 -0.00121086
   0.66584472  0.35186769  0.00029619
   0.35162589  0.35162782  0.00030826
   0.65667570  0.64652451 -0.00035863
   1.01026028  0.35196733 -0.00016538
  -0.03233884  0.64600576  0.00011663
   0.34487162  0.64597350  0.00011481
   0.11014132  0.21931128  0.95195340
   0.22090310  0.11109145  0.04980596
   0.11393786  0.56122199  0.94804182
   0.22223107  0.44135341  0.05479852
   0.11382928  0.89017093  0.95267767
   0.22290707  0.77925665  0.04225327
   0.44371696  0.22088905  0.94711916
   0.55684846  0.11115875  0.04976538
   0.44680531  0.55415597  0.94298426
   0.55494313  0.44351027  0.05674753
   0.44292790  0.89016229  0.95265793
   0.55835263  0.77816690  0.05140392
   0.77594801  0.21940440  0.95218719
   0.88709987  0.10764503  0.04796750
   0.77396891  0.55411250  0.94297174
   0.88564603  0.44115715  0.05461741
   0.77834470  0.89009779  0.95103231
   0.88634449  0.77809631  0.05138200
unknown system                          
           1
     8.281038    4.782934    0.000000
    -8.321251    4.852577    0.000000
     0.000000    0.000000   30.000000
   V    Mo   W    S 
   3   3   3  18
Direct configuration=    16
  -0.00379128 -0.01007911 -0.00112815
   0.34959639  0.03264226  0.00172132
   0.65984644 -0.01072622 -0.00120337
   0.66569437  0.35200679  0.00028776
   0.35181196  0.35175319  0.00030075
   0.65683613  0.64679155 -0.00037912
   1.01065796  0.35254547 -0.00013237
  -0.03253826  0.64605214  0.00010349
   0.34502473  0.64592973  0.00009559
   0.11003943  0.21921192  0.95209350
   0.22084448  0.11122825  0.04978844
   0.11402397  0.56137710  0.94802467
   0.22228872  0.44137687  0.05482413
   0.11391010  0.89019773  0.95270272
   0.22295941  0.77935644  0.04206286
   0.44378629  0.22103455  0.94709468
   0.55702459  0.11132128  0.04974822
   0.44684953  0.55409981  0.94294599
   0.55496049  0.44357008  0.05675943
   0.44281658  0.89015286  0.95267559
   0.55831724  0.77803742  0.05146612
   0.77599129  0.21937082  0.95233432
   0.88712400  0.10763259  0.04785068
   0.77387011  0.55405613  0.94293302
   0.88560885  0.44116154  0.05461976
   0.77839104  0.89010449  0.95097440
   0.88626988  0.77800877  0.05143548
unknown system                          
           1
     8.283021    4.783956    0.000000
    -8.322375    4.852111    0.000000
     0.000000    0.000000   30.000000
   V    Mo   W    S 
   3   3   3  18
Direct configuration=    17
  -0.00115833 -0.00468315 -0.00121130
   0.34888811  0.03078373  0.00147309
   0.66213540 -0.00578821 -0.00126967
   0.66647278  0.35114938  0.00032246
   0.35072126  0.35089036  0.00033148
   0.65605933  0.64550375 -0.00025647
   1.00840834  0.34926079 -0.00027593
  -0.03198578  0.64605239  0.00022070
   0.34481724  0.64626987  0.00023795
   0.11058721  0.21976927  0.95132882
   0.22116789  0.11049659  0.04989499
   0.11360378  0.56057832  0.94815723
   0.22189511  0.44115514  0.05468036
   0.11354226  0.89012455  0.95268492
   0.22268767  0.77883276  0.04284545
   0.44345276  0.22029805  0.94717756
   0.55618506  0.11048741  0.04989323
   0.44655918  0.55423329  0.94309213
   0.55481916  0.44314544  0.05675796
   0.44328148  0.89019797  0.95262725
   0.55861901  0.77863727  0.05112033
   0.77577498  0.21957670  0.95151156
   0.88693556  0.10756418  0.04844407
   0.77427077  0.55420987  0.94307956
   0.88577906  0.44100978  0.05463483
   0.77818246  0.89009396  0.95141915
   0.88651271  0.77836499  0.05107819
unknown system                          
           1
     8.284493    4.784534    0.000000
    -8.321625    4.848839    0.000000
     0.000000    0.000000   30.000000
   V    Mo   W    S 
   3   3   3  18
Direct configuration=    18
  -0.00014739 -0.00290257 -0.00124333
   0.34889962  0.03068524  0.00141176
   0.66260086 -0.00444283 -0.00129480
   0.66666432  0.35095181  0.00034473
   0.35050509  0.35063889  0.00034444
   0.65565917  0.64479794 -0.00025871
   1.00779409  0.34843234 -0.00030995
  -0.03213633  0.64585652  0.00023631
   0.34487753  0.64623623  0.00025766
   0.11069605  0.21993837  0.95113045
   0.22124859  0.11036728  0.04996265
   0.11354897  0.56043847  0.94826639
   0.22180329  0.44106341  0.05462920
   0.11353930  0.89011582  0.95274204
   0.22261734  0.77870153  0.04287617
   0.44340207  0.22014553  0.94717952
   0.55605805  0.11034993  0.04996602
   0.44649892  0.55416775  0.94311786
   0.55475604  0.44297566  0.05674421
   0.44326474  0.89017431  0.95264290
   0.55882208  0.77876882  0.05108089
   0.77575361  0.21962954  0.95131054
   0.88688497  0.10754319  0.04856203
   0.77426503  0.55417164  0.94310523
   0.88576953  0.44093602  0.05463183
   0.77812248  0.89001116  0.95155720
   0.88644641  0.77846247  0.05100664
unknown system                          
           1
     8.291963    4.788828    0.000000
    -8.330057    4.854798    0.000000
     0.000000    0.000000   30.000000
   V    Mo   W    S 
   3   3   3  18
Direct configuration=    19
   0.00136661 -0.00051468 -0.00130990
   0.34909823  0.03110531  0.00141231
   0.66279926 -0.00333542 -0.00136134
   0.66708303  0.35092020  0.00037847
   0.35022394  0.35040819  0.00036906
   0.65490041  0.64350675 -0.00027974
   1.00709461  0.34755641 -0.00025411
  -0.03295058  0.64562810  0.00031604
   0.34560417  0.64623558  0.00033926
   0.11064436  0.22010257  0.95100258
   0.22115052  0.11046142  0.05014073
   0.11363657  0.56056235  0.94846551
   0.22180359  0.44088753  0.05453625
   0.11361290  0.89018746  0.95296177
   0.22248857  0.77846839  0.04244866
   0.44363231  0.22047232  0.94707733
   0.55634692  0.11048183  0.05012672
   0.44642739  0.55378793  0.94305652
   0.55460231  0.44260964  0.05673516
   0.44309600  0.89010277  0.95275030
   0.55911066  0.77857648  0.05101438
   0.77580471  0.21962790  0.95121217
   0.88688209  0.10753462  0.04850616
   0.77395326  0.55385675  0.94303863
   0.88561357  0.44079051  0.05461059
   0.77813320  0.88980134  0.95186640
   0.88605585  0.77839218  0.05083999
unknown system                          
           1
     8.292866    4.789525    0.000000
    -8.330787    4.855197    0.000000
     0.000000    0.000000   30.000000
   V    Mo   W    S 
   3   3   3  18
Direct configuration=    20
   0.00036974 -0.00269112 -0.00126109
   0.34943712  0.03191425  0.00150032
   0.66180095 -0.00535846 -0.00133028
   0.66662104  0.35111936  0.00034721
   0.35061960  0.35058129  0.00034096
   0.65527216  0.64415810 -0.00034425
   1.00804252  0.34893827 -0.00023594
  -0.03302567  0.64564751  0.00021467
   0.34557899  0.64612729  0.00022882
   0.11046828  0.21990885  0.95127711
   0.22109678  0.11066906  0.05007141
   0.11374293  0.56079079  0.94839742
   0.22194051  0.44101274  0.05463227
   0.11379876  0.89024668  0.95292726
   0.22264573  0.77877548  0.04224640
   0.44366718  0.22058491  0.94710054
   0.55652306  0.11070470  0.05003165
   0.44651738  0.55381699  0.94301714
   0.55466335  0.44279067  0.05675306
   0.44295180  0.89014453  0.95274564
   0.55900386  0.77840706  0.05117740
   0.77585675  0.21952918  0.95152520
   0.88693644  0.10756077  0.04832650
   0.77390595  0.55387844  0.94300055
   0.88560501  0.44088596  0.05464099
   0.77818503  0.88978975  0.95165537
   0.88598923  0.77828140  0.05101357
unknown system                          
           1
     8.291687    4.788970    0.000000
    -8.330039    4.855392    0.000000
     0.000000    0.000000   30.000000
   V    Mo   W    S 
   3   3   3  18
Direct configuration=    21
   0.00042748 -0.00300740 -0.00125589
   0.34971972  0.03255117  0.00156759
   0.66116948 -0.00632126 -0.00134609
   0.66648663  0.35124079  0.00034856
   0.35072073  0.35054142  0.00034312
   0.65519745  0.64407255 -0.00036330
   1.00837742  0.34947078 -0.00020863
  -0.03338095  0.64562060  0.00021197
   0.34589869  0.64611463  0.00022173
   0.11036062  0.21990921  0.95138497
   0.22109226  0.11082162  0.05009121
   0.11381232  0.56093854  0.94843783
   0.22204381  0.44106551  0.05462870
   0.11396534  0.89034533  0.95299545
   0.22269555  0.77888787  0.04195844
   0.44377341  0.22076178  0.94708660
   0.55669242  0.11086509  0.05001592
   0.44651046  0.55366943  0.94297326
   0.55463477  0.44274849  0.05674230
   0.44282625  0.89017763  0.95278689
   0.55900907  0.77818656  0.05121574
   0.77590454  0.21945978  0.95169123
   0.88695146  0.10758091  0.04820208
   0.77377404  0.55375998  0.94295543
   0.88556136  0.44093179  0.05462990
   0.77820951  0.88970197  0.95167451
   0.88578063  0.77811968  0.05101039
unknown system                          
           1
     8.290262    4.788192    0.000000
    -8.328625    4.854631    0.000000
     0.000000    0.000000   30.000000
   V    Mo   W    S 
   3   3   3  18
Direct configuration=    22
  -0.00005258 -0.00408622 -0.00123354
   0.34986456  0.03292557  0.00163047
   0.66052851 -0.00764445 -0.00134015
   0.66631093  0.35146948  0.00034394
   0.35092066  0.35068009  0.00034105
   0.65535838  0.64437109 -0.00037459
   1.00893172  0.35025475 -0.00018487
  -0.03348751  0.64564384  0.00020163
   0.34595305  0.64606705  0.00020554
   0.11026127  0.21984698  0.95153816
   0.22109039  0.11097567  0.05006975
   0.11388789  0.56109475  0.94840970
   0.22215011  0.44116095  0.05464156
   0.11408008  0.89039622  0.95299797
   0.22275901  0.77902004  0.04179698
   0.44383988  0.22089739  0.94707654
   0.55683940  0.11103000  0.04997044
   0.44654042  0.55362510  0.94294896
   0.55465894  0.44283453  0.05673335
   0.44273046  0.89019186  0.95278852
   0.55891514  0.77802819  0.05127639
   0.77594765  0.21940210  0.95188969
   0.88697577  0.10760944  0.04808083
   0.77370782  0.55372582  0.94293092
   0.88554343  0.44100830  0.05461143
   0.77824650  0.88969550  0.95159215
   0.88571255  0.77799039  0.05105709
unknown system                          
           1
     8.299247    4.793628    0.000000
    -8.337856    4.860498    0.000000
     0.000000    0.000000   30.000000
   V    Mo   W    S 
   3   3   3  18
Direct configuration=    23
   0.00038880 -0.00347439 -0.00124681
   0.34986702  0.03299589  0.00162492
   0.66059416 -0.00732795 -0.00135521
   0.66645766  0.35147210  0.00035253
   0.35079312  0.35061652  0.00034764
   0.65518400  0.64406148 -0.00038442
   1.00881841  0.35013662 -0.00018348
  -0.03364309  0.64553830  0.00021078
   0.34599624  0.64597418  0.00021353
   0.11024637  0.21990744  0.95149619
   0.22108705  0.11096383  0.05010992
   0.11388129  0.56108213  0.94845682
   0.22214939  0.44114438  0.05462215
   0.11410370  0.89043142  0.95303408
   0.22273108  0.77896661  0.04173866
   0.44385941  0.22091517  0.94706760
   0.55683924  0.11103282  0.05000648
   0.44650280  0.55355617  0.94294364
   0.55461862  0.44273506  0.05673031
   0.44268996  0.89018647  0.95280354
   0.55896873  0.77796681  0.05125843
   0.77599094  0.21944425  0.95184837
   0.88700608  0.10763733  0.04809510
   0.77367376  0.55367194  0.94292546
   0.88553523  0.44100110  0.05460992
   0.77824856  0.88960797  0.95165937
   0.88562592  0.77797080  0.05101439
unknown system                          
           1
     8.297441    4.792817    0.000000
    -8.335933    4.859487    0.000000
     0.000000    0.000000   30.000000
   V    Mo   W    S 
   3   3   3  18
Direct configuration=    24
  -0.00018780 -0.00485301 -0.00119653
   0.35018327  0.03361138  0.00170587
   0.65947952 -0.00952009 -0.00135218
   0.66605336  0.35168571  0.00032046
   0.35101711  0.35060229  0.00031947
   0.65539453  0.64454413 -0.00042570
   1.00962035  0.35120997 -0.00014465
  -0.03372581  0.64568943  0.00015018
   0.34621294  0.64611791  0.00014606
   0.11011555  0.21982217  0.95168061
   0.22109231  0.11118859  0.05011371
   0.11401992  0.56138836  0.94837715
   0.22228483  0.44125372  0.05470490
   0.11435033  0.89053409  0.95302477
   0.22285859  0.77924623  0.04150560
   0.44395136  0.22108004  0.94705317
   0.55707704  0.11124195  0.04993956
   0.44653408  0.55347248  0.94288666
   0.55463169  0.44284276  0.05676698
   0.44253982  0.89023665  0.95279047