   27   27  100    1
  0.9710400E+02  0.1002848E-08  0.1002848E-08  0.3000000E-08  0.5000000E-15
  1.000000000000000E-004
  CAR 
 unknown system                          
    159     34    120
 
  0.0000000E+00  0.0000000E+00  0.0000000E+00  0.1562500E-01
    1      -17.819177   1.000000
    2      -16.664082   1.000000
    3      -16.578169   1.000000
    4      -16.543552   1.000000
    5      -16.492596   1.000000
    6      -16.449274   1.000000
    7      -16.358280   1.000000
    8      -16.346384   1.000000
    9      -16.138767   1.000000
   10      -16.098233   1.000000
   11      -16.039361   1.000000
   12      -16.011339   1.000000
   13      -15.905210   1.000000
   14      -15.809891   1.000000
   15      -15.584056   1.000000
   16      -15.512055   1.000000
   17      -15.365071   1.000000
   18      -15.307263   1.000000
   19       -9.341595   1.000000
   20       -8.921375   1.000000
   21       -8.889418   1.000000
   22       -8.833018   1.000000
   23       -8.752461   1.000000
   24       -8.680009   1.000000
   25       -8.606534   1.000000
   26       -8.505064   1.000000
   27       -8.476390   1.000000
   28       -8.402595   1.000000
   29       -8.366835   1.000000
   30       -8.286255   1.000000
   31       -8.261042   1.000000
   32       -8.190956   1.000000
   33       -8.176680   1.000000
   34       -8.117580   1.000000
   35       -7.841191   1.000000
   36       -7.780413   1.000000
   37       -7.754759   1.000000
   38       -7.595353   1.000000
   39       -7.490869   1.000000
   40       -7.429372   1.000000
   41       -7.313894   1.000000
   42       -7.174414   1.000000
   43       -7.159942   1.000000
   44       -6.873329   1.000000
   45       -6.849374   1.000000
   46       -6.753294   1.000000
   47       -6.690412   1.000000
   48       -6.614070   1.000000
   49       -6.575482   1.000000
   50       -6.529152   1.000000
   51       -6.423818   1.000000
   52       -6.407655   1.000000
   53       -6.368924   1.000000
   54       -6.309526   1.000000
   55       -6.179087   1.000000
   56       -6.131216   1.000000
   57       -5.975325   1.000000
   58       -5.918987   1.000000
   59       -5.736215   1.000000
   60       -5.603313   1.000000
   61       -5.501377   1.000000
   62       -5.384110   1.000000
   63       -5.180803   1.000000
   64       -5.061035   1.000000
   65       -4.995441   1.000000
   66       -4.923407   1.000000
   67       -4.853277   1.000000
   68       -4.824717   1.000000
   69       -4.762916   1.000000
   70       -4.701313   1.000000
   71       -4.607969   1.000000
   72       -4.584039   1.000000
   73       -4.430785   1.000000
   74       -4.253662   1.000000
   75       -4.229668   1.000000
   76       -4.059162   1.000000
   77       -3.621499   0.999572
   78       -3.491321   0.992101
   79       -3.481343   0.990435
   80       -3.237319   0.731536
   81       -3.154594   0.512967
   82       -2.804485   0.007280
   83       -2.665950   0.000310
   84       -2.591036   0.000039
   85       -2.555213   0.000013
   86       -2.520089   0.000004
   87       -2.449863   0.000000
   88       -2.345184   0.000000
   89       -2.134988   0.000000
   90       -1.938109   0.000000
   91       -1.702246   0.000000
   92       -1.582040   0.000000
   93       -1.389501   0.000000
   94       -1.314947   0.000000
   95       -1.296318   0.000000
   96       -1.189144   0.000000
   97       -1.146534   0.000000
   98       -1.040780   0.000000
   99       -0.954662   0.000000
  100       -0.551301   0.000000
  101       -0.513097   0.000000
  102       -0.451947   0.000000
  103       -0.306106   0.000000
  104       -0.117418   0.000000
  105       -0.022254   0.000000
  106        0.026644   0.000000
  107        0.121728   0.000000
  108        0.173543   0.000000
  109        0.232196   0.000000
  110        0.270660   0.000000
  111        0.358872   0.000000
  112        0.701730   0.000000
  113        0.742061   0.000000
  114        0.812006   0.000000
  115        0.877154   0.000000
  116        0.943051   0.000000
  117        1.003117   0.000000
  118        1.667306   0.000000
  119        1.840366   0.000000
  120        2.175019   0.000000
 
  0.1250000E+00  0.2775558E-16  0.0000000E+00  0.3125000E-01
    1      -17.793114   1.000000
    2      -16.756188   1.000000
    3      -16.660481   1.000000
    4      -16.542107   1.000000
    5      -16.508895   1.000000
    6      -16.394249   1.000000
    7      -16.328992   1.000000
    8      -16.301137   1.000000
    9      -16.202558   1.000000
   10      -16.061891   1.000000
   11      -16.015543   1.000000
   12      -15.975836   1.000000
   13      -15.899281   1.000000
   14      -15.759900   1.000000
   15      -15.601091   1.000000
   16      -15.520553   1.000000
   17      -15.378146   1.000000
   18      -15.309455   1.000000
   19       -9.317760   1.000000
   20       -9.183754   1.000000
   21       -8.977491   1.000000
   22       -8.870919   1.000000
   23       -8.783430   1.000000
   24       -8.670053   1.000000
   25       -8.590662   1.000000
   26       -8.545260   1.000000
   27       -8.473602   1.000000
   28       -8.409917   1.000000
   29       -8.370069   1.000000
   30       -8.292060   1.000000
   31       -8.197852   1.000000
   32       -8.104367   1.000000
   33       -8.017243   1.000000
   34       -7.944418   1.000000
   35       -7.834577   1.000000
   36       -7.732460   1.000000
   37       -7.699656   1.000000
   38       -7.567395   1.000000
   39       -7.476949   1.000000
   40       -7.433348   1.000000
   41       -7.303968   1.000000
   42       -7.213940   1.000000
   43       -7.116245   1.000000
   44       -6.953204   1.000000
   45       -6.883197   1.000000
   46       -6.810448   1.000000
   47       -6.739656   1.000000
   48       -6.619874   1.000000
   49       -6.547527   1.000000
   50       -6.455896   1.000000
   51       -6.425310   1.000000
   52       -6.394904   1.000000
   53       -6.357827   1.000000
   54       -6.339475   1.000000
   55       -6.187527   1.000000
   56       -6.153901   1.000000
   57       -5.987335   1.000000
   58       -5.848086   1.000000
   59       -5.692455   1.000000
   60       -5.608085   1.000000
   61       -5.483843   1.000000
   62       -5.329849   1.000000
   63       -5.207364   1.000000
   64       -5.156334   1.000000
   65       -5.116712   1.000000
   66       -5.045622   1.000000
   67       -4.961614   1.000000
   68       -4.871797   1.000000
   69       -4.773849   1.000000
   70       -4.698819   1.000000
   71       -4.627778   1.000000
   72       -4.426955   1.000000
   73       -4.385781   1.000000
   74       -4.167192   1.000000
   75       -4.096500   1.000000
   76       -3.930482   1.000000
   77       -3.755362   0.999991
   78       -3.642001   0.999748
   79       -3.562858   0.998246
   80       -3.155673   0.516009
   81       -3.045958   0.230969
   82       -2.800176   0.006688
   83       -2.688438   0.000550
   84       -2.634163   0.000132
   85       -2.538128   0.000008
   86       -2.495846   0.000002
   87       -2.433980   0.000000
   88       -2.330167   0.000000
   89       -2.152084   0.000000
   90       -1.997999   0.000000
   91       -1.712274   0.000000
   92       -1.530977   0.000000
   93       -1.420779   0.000000
   94       -1.312306   0.000000
   95       -1.241465   0.000000
   96       -1.168203   0.000000
   97       -1.111365   0.000000
   98       -1.021254   0.000000
   99       -0.931922   0.000000
  100       -0.628399   0.000000
  101       -0.570867   0.000000
  102       -0.508095   0.000000
  103       -0.354660   0.000000
  104       -0.174361   0.000000
  105       -0.156926   0.000000
  106       -0.055909   0.000000
  107        0.031337   0.000000
  108        0.139265   0.000000
  109        0.277641   0.000000
  110        0.342693   0.000000
  111        0.442936   0.000000
  112        0.570132   0.000000
  113        0.694460   0.000000
  114        0.826361   0.000000
  115        0.884940   0.000000
  116        0.996660   0.000000
  117        1.214197   0.000000
  118        1.711278   0.000000
  119        1.879529   0.000000
  120        2.210459   0.000000
 
  0.2500000E+00  0.5551115E-16  0.0000000E+00  0.3125000E-01
    1      -17.715891   1.000000
    2      -16.983397   1.000000
    3      -16.669269   1.000000
    4      -16.602591   1.000000
    5      -16.538347   1.000000
    6      -16.362263   1.000000
    7      -16.282136   1.000000
    8      -16.254292   1.000000
    9      -16.176353   1.000000
   10      -16.084752   1.000000
   11      -16.002034   1.000000
   12      -15.882077   1.000000
   13      -15.851396   1.000000
   14      -15.670375   1.000000
   15      -15.634773   1.000000
   16      -15.538889   1.000000
   17      -15.408551   1.000000
   18      -15.319412   1.000000
   19       -9.512022   1.000000
   20       -9.260319   1.000000
   21       -9.130407   1.000000
   22       -8.995313   1.000000
   23       -8.887524   1.000000
   24       -8.752182   1.000000
   25       -8.557467   1.000000
   26       -8.503132   1.000000
   27       -8.468846   1.000000
   28       -8.376802   1.000000
   29       -8.314286   1.000000
   30       -8.254519   1.000000
   31       -8.118397   1.000000
   32       -8.069482   1.000000
   33       -7.928243   1.000000
   34       -7.755921   1.000000
   35       -7.723189   1.000000
   36       -7.645694   1.000000
   37       -7.577478   1.000000
   38       -7.521754   1.000000
   39       -7.442618   1.000000
   40       -7.368763   1.000000
   41       -7.234154   1.000000
   42       -7.184233   1.000000
   43       -7.075881   1.000000
   44       -7.037284   1.000000
   45       -6.925645   1.000000
   46       -6.811007   1.000000
   47       -6.776881   1.000000
   48       -6.653559   1.000000
   49       -6.565177   1.000000
   50       -6.527352   1.000000
   51       -6.464771   1.000000
   52       -6.353295   1.000000
   53       -6.297677   1.000000
   54       -6.233187   1.000000
   55       -6.164279   1.000000
   56       -6.120715   1.000000
   57       -5.974140   1.000000
   58       -5.801506   1.000000
   59       -5.655679   1.000000
   60       -5.634471   1.000000
   61       -5.570378   1.000000
   62       -5.511498   1.000000
   63       -5.402634   1.000000
   64       -5.326886   1.000000
   65       -5.233424   1.000000
   66       -5.138625   1.000000
   67       -4.954861   1.000000
   68       -4.862104   1.000000
   69       -4.748840   1.000000
   70       -4.680960   1.000000
   71       -4.595013   1.000000
   72       -4.281415   1.000000
   73       -4.231443   1.000000
   74       -4.193242   1.000000
   75       -4.042186   1.000000
   76       -3.916264   1.000000
   77       -3.828060   0.999999
   78       -3.688340   0.999930
   79       -3.537576   0.996934
   80       -3.108736   0.385237
   81       -2.985863   0.122903
   82       -2.777510   0.004221
   83       -2.704216   0.000810
   84       -2.681185   0.000458
   85       -2.541237   0.000008
   86       -2.434875   0.000000
   87       -2.410932   0.000000
   88       -2.284843   0.000000
   89       -2.201827   0.000000
   90       -2.063527   0.000000
   91       -1.732410   0.000000
   92       -1.499768   0.000000
   93       -1.438000   0.000000
   94       -1.311421   0.000000
   95       -1.177313   0.000000
   96       -1.105847   0.000000
   97       -1.036186   0.000000
   98       -0.960068   0.000000
   99       -0.896735   0.000000
  100       -0.767003   0.000000
  101       -0.703290   0.000000
  102       -0.617993   0.000000
  103       -0.504182   0.000000
  104       -0.369699   0.000000
  105       -0.257661   0.000000
  106       -0.196710   0.000000
  107       -0.051496   0.000000
  108       -0.003880   0.000000
  109        0.153363   0.000000
  110        0.406302   0.000000
  111        0.465680   0.000000
  112        0.616700   0.000000
  113        0.633720   0.000000
  114        0.832212   0.000000
  115        1.009303   0.000000
  116        1.092655   0.000000
  117        1.497427   0.000000
  118        1.834439   0.000000
  119        1.992064   0.000000
  120        2.315699   0.000000
 
  0.3750000E+00  0.0000000E+00  0.0000000E+00  0.3125000E-01
    1      -17.590914   1.000000
    2      -17.210194   1.000000
    3      -16.686158   1.000000
    4      -16.647933   1.000000
    5      -16.525342   1.000000
    6      -16.414932   1.000000
    7      -16.237010   1.000000
    8      -16.218841   1.000000
    9      -16.143170   1.000000
   10      -16.066434   1.000000
   11      -15.977842   1.000000
   12      -15.827405   1.000000
   13      -15.791269   1.000000
   14      -15.691931   1.000000
   15      -15.636175   1.000000
   16      -15.507200   1.000000
   17      -15.434103   1.000000
   18      -15.336407   1.000000
   19       -9.741854   1.000000
   20       -9.260417   1.000000
   21       -9.233279   1.000000
   22       -9.056851   1.000000
   23       -8.907157   1.000000
   24       -8.820743   1.000000
   25       -8.555772   1.000000
   26       -8.494755   1.000000
   27       -8.422054   1.000000
   28       -8.347458   1.000000
   29       -8.307948   1.000000
   30       -8.207154   1.000000
   31       -8.084556   1.000000
   32       -8.035151   1.000000
   33       -7.919435   1.000000
   34       -7.765744   1.000000
   35       -7.666239   1.000000
   36       -7.615241   1.000000
   37       -7.578754   1.000000
   38       -7.490276   1.000000
   39       -7.360106   1.000000
   40       -7.256019   1.000000
   41       -7.168622   1.000000
   42       -7.104458   1.000000
   43       -7.046661   1.000000
   44       -6.991048   1.000000
   45       -6.864332   1.000000
   46       -6.769978   1.000000
   47       -6.691717   1.000000
   48       -6.650036   1.000000
   49       -6.563215   1.000000
   50       -6.513047   1.000000
   51       -6.390517   1.000000
   52       -6.347807   1.000000
   53       -6.224620   1.000000
   54       -6.180071   1.000000
   55       -6.096167   1.000000
   56       -6.046219   1.000000
   57       -5.961822   1.000000
   58       -5.904956   1.000000
   59       -5.885407   1.000000
   60       -5.779649   1.000000
   61       -5.715265   1.000000
   62       -5.686140   1.000000
   63       -5.564178   1.000000
   64       -5.466291   1.000000
   65       -5.228334   1.000000
   66       -5.039268   1.000000
   67       -4.892071   1.000000
   68       -4.852811   1.000000
   69       -4.733261   1.000000
   70       -4.704102   1.000000
   71       -4.610766   1.000000
   72       -4.494661   1.000000
   73       -4.154580   1.000000
   74       -4.131454   1.000000
   75       -4.101436   1.000000
   76       -3.896543   1.000000
   77       -3.714060   0.999967
   78       -3.550376   0.997681
   79       -3.424568   0.973902
   80       -3.118074   0.410709
   81       -3.048592   0.236676
   82       -2.760445   0.002939
   83       -2.724360   0.001308
   84       -2.688052   0.000545
   85       -2.534951   0.000007
   86       -2.399396   0.000000
   87       -2.364404   0.000000
   88       -2.259757   0.000000
   89       -2.217118   0.000000
   90       -2.073697   0.000000
   91       -1.756880   0.000000
   92       -1.521964   0.000000
   93       -1.419304   0.000000
   94       -1.324645   0.000000
   95       -1.142295   0.000000
   96       -1.092168   0.000000
   97       -1.014177   0.000000
   98       -0.948092   0.000000
   99       -0.859611   0.000000
  100       -0.829623   0.000000
  101       -0.745807   0.000000
  102       -0.695713   0.000000
  103       -0.638536   0.000000
  104       -0.515162   0.000000
  105       -0.450528   0.000000
  106       -0.230677   0.000000
  107       -0.164916   0.000000
  108       -0.097404   0.000000
  109        0.001993   0.000000
  110        0.421410   0.000000
  111        0.437956   0.000000
  112        0.602660   0.000000
  113        0.682688   0.000000
  114        0.885755   0.000000
  115        1.123910   0.000000
  116        1.187218   0.000000
  117        1.695480   0.000000
  118        2.020484   0.000000
  119        2.167845   0.000000
  120        2.488208   0.000000
 
  0.5000000E+00  0.1110223E-15  0.0000000E+00  0.1562500E-01
    1      -17.450015   1.000000
    2      -17.386694   1.000000
    3      -16.694139   1.000000
    4      -16.664249   1.000000
    5      -16.501349   1.000000
    6      -16.452064   1.000000
    7      -16.224550   1.000000
    8      -16.203550   1.000000
    9      -16.150227   1.000000
   10      -16.030366   1.000000
   11      -15.965573   1.000000
   12      -15.813629   1.000000
   13      -15.760828   1.000000
   14      -15.696428   1.000000
   15      -15.669860   1.000000
   16      -15.490576   1.000000
   17      -15.426980   1.000000
   18      -15.348043   1.000000
   19       -9.824127   1.000000
   20       -9.301465   1.000000
   21       -9.250531   1.000000
   22       -9.067265   1.000000
   23       -8.873250   1.000000
   24       -8.818920   1.000000
   25       -8.650271   1.000000
   26       -8.465773   1.000000
   27       -8.422709   1.000000
   28       -8.329197   1.000000
   29       -8.289460   1.000000
   30       -8.153876   1.000000
   31       -8.076453   1.000000
   32       -8.000262   1.000000
   33       -7.898878   1.000000
   34       -7.820312   1.000000
   35       -7.707413   1.000000
   36       -7.655467   1.000000
   37       -7.576848   1.000000
   38       -7.503279   1.000000
   39       -7.331412   1.000000
   40       -7.257066   1.000000
   41       -7.149337   1.000000
   42       -7.017729   1.000000
   43       -6.938649   1.000000
   44       -6.895147   1.000000
   45       -6.848345   1.000000
   46       -6.713885   1.000000
   47       -6.668048   1.000000
   48       -6.571817   1.000000
   49       -6.547945   1.000000
   50       -6.488988   1.000000
   51       -6.422517   1.000000
   52       -6.378713   1.000000
   53       -6.299711   1.000000
   54       -6.137698   1.000000
   55       -6.081353   1.000000
   56       -6.041790   1.000000
   57       -6.019009   1.000000
   58       -5.931365   1.000000
   59       -5.866326   1.000000
   60       -5.802821   1.000000
   61       -5.782988   1.000000
   62       -5.650905   1.000000
   63       -5.593218   1.000000
   64       -5.524918   1.000000
   65       -5.395278   1.000000
   66       -5.044966   1.000000
   67       -4.945076   1.000000
   68       -4.851399   1.000000
   69       -4.753739   1.000000
   70       -4.715932   1.000000
   71       -4.549426   1.000000
   72       -4.473553   1.000000
   73       -4.270194   1.000000
   74       -4.104173   1.000000
   75       -4.065144   1.000000
   76       -3.813850   0.999999
   77       -3.693353   0.999939
   78       -3.521680   0.995708
   79       -3.303724   0.861486
   80       -3.167598   0.549526
   81       -3.089059   0.333273
   82       -2.757080   0.002732
   83       -2.734430   0.001649
   84       -2.689269   0.000561
   85       -2.533470   0.000007
   86       -2.389574   0.000000
   87       -2.338134   0.000000
   88       -2.264953   0.000000
   89       -2.197880   0.000000
   90       -2.066516   0.000000
   91       -1.769173   0.000000
   92       -1.530262   0.000000
   93       -1.413315   0.000000
   94       -1.342782   0.000000
   95       -1.128899   0.000000
   96       -1.112382   0.000000
   97       -1.022172   0.000000
   98       -0.969741   0.000000
   99       -0.853018   0.000000
  100       -0.822193   0.000000
  101       -0.721523   0.000000
  102       -0.702882   0.000000
  103       -0.684561   0.000000
  104       -0.588065   0.000000
  105       -0.538279   0.000000
  106       -0.250720   0.000000
  107       -0.206160   0.000000
  108       -0.113408   0.000000
  109       -0.066809   0.000000
  110        0.406671   0.000000
  111        0.434122   0.000000
  112        0.600113   0.000000
  113        0.704939   0.000000
  114        0.908385   0.000000
  115        1.165532   0.000000
  116        1.226873   0.000000
  117        1.763142   0.000000
  118        2.252317   0.000000
  119        2.265725   0.000000
  120        2.395197   0.000000
 
  0.0000000E+00  0.1250000E+00  0.0000000E+00  0.3125000E-01
    1      -17.795380   1.000000
    2      -16.725423   1.000000
    3      -16.615346   1.000000
    4      -16.592224   1.000000
    5      -16.562238   1.000000
    6      -16.403616   1.000000
    7      -16.314801   1.000000
    8      -16.278701   1.000000
    9      -16.138943   1.000000
   10      -16.115780   1.000000
   11      -16.083401   1.000000
   12      -15.906399   1.000000
   13      -15.878601   1.000000
   14      -15.788511   1.000000
   15      -15.602611   1.000000
   16      -15.520401   1.000000
   17      -15.377517   1.000000
   18      -15.310027   1.000000
   19       -9.361716   1.000000
   20       -9.064440   1.000000
   21       -8.959426   1.000000
   22       -8.910208   1.000000
   23       -8.801141   1.000000
   24       -8.755187   1.000000
   25       -8.626978   1.000000
   26       -8.529859   1.000000
   27       -8.487527   1.000000
   28       -8.382575   1.000000
   29       -8.333562   1.000000
   30       -8.262716   1.000000
   31       -8.168840   1.000000
   32       -8.102568   1.000000
   33       -8.057212   1.000000
   34       -7.938781   1.000000
   35       -7.796330   1.000000
   36       -7.731506   1.000000
   37       -7.662278   1.000000
   38       -7.624642   1.000000
   39       -7.543932   1.000000
   40       -7.440889   1.000000
   41       -7.260568   1.000000
   42       -7.201864   1.000000
   43       -7.150092   1.000000
   44       -6.913603   1.000000
   45       -6.870930   1.000000
   46       -6.812033   1.000000
   47       -6.690830   1.000000
   48       -6.658423   1.000000
   49       -6.551951   1.000000
   50       -6.498213   1.000000
   51       -6.454540   1.000000
   52       -6.372930   1.000000
   53       -6.344860   1.000000
   54       -6.314631   1.000000
   55       -6.193750   1.000000
   56       -6.127616   1.000000
   57       -6.031779   1.000000
   58       -5.858738   1.000000
   59       -5.709413   1.000000
   60       -5.592483   1.000000
   61       -5.430144   1.000000
   62       -5.352240   1.000000
   63       -5.241163   1.000000
   64       -5.170746   1.000000
   65       -5.110263   1.000000
   66       -5.082680   1.000000
   67       -4.941314   1.000000
   68       -4.843535   1.000000
   69       -4.737948   1.000000
   70       -4.652201   1.000000
   71       -4.584634   1.000000
   72       -4.490186   1.000000
   73       -4.393794   1.000000
   74       -4.212281   1.000000
   75       -4.149830   1.000000
   76       -3.885736   1.000000
   77       -3.736968   0.999983
   78       -3.638513   0.999724
   79       -3.583148   0.998904
   80       -3.148977   0.497123
   81       -3.052788   0.245927
   82       -2.814506   0.008840
   83       -2.698399   0.000703
   84       -2.603397   0.000056
   85       -2.526026   0.000005
   86       -2.502528   0.000002
   87       -2.438150   0.000000
   88       -2.337227   0.000000
   89       -2.142605   0.000000
   90       -1.937294   0.000000
   91       -1.695174   0.000000
   92       -1.579048   0.000000
   93       -1.405194   0.000000
   94       -1.297199   0.000000
   95       -1.268099   0.000000
   96       -1.170548   0.000000
   97       -1.141575   0.000000
   98       -1.018599   0.000000
   99       -0.936817   0.000000
  100       -0.607747   0.000000
  101       -0.573559   0.000000
  102       -0.523080   0.000000
  103       -0.346307   0.000000
  104       -0.235712   0.000000
  105       -0.132552   0.000000
  106       -0.042842   0.000000
  107        0.021770   0.000000
  108        0.144402   0.000000
  109        0.203643   0.000000
  110        0.307384   0.000000
  111        0.451755   0.000000
  112        0.713909   0.000000
  113        0.808816   0.000000
  114        0.880916   0.000000
  115        0.927703   0.000000
  116        0.954075   0.000000
  117        1.018480   0.000000
  118        1.709839   0.000000
  119        1.879129   0.000000
  120        2.210029   0.000000
 
  0.1250000E+00  0.1250000E+00  0.0000000E+00  0.3125000E-01
    1      -17.746284   1.000000
    2      -16.836175   1.000000
    3      -16.791852   1.000000
    4      -16.577386   1.000000
    5      -16.469945   1.000000
    6      -16.393517   1.000000
    7      -16.294473   1.000000
    8      -16.245820   1.000000
    9      -16.191355   1.000000
   10      -16.115105   1.000000
   11      -16.013368   1.000000
   12      -15.900506   1.000000
   13      -15.801122   1.000000
   14      -15.731336   1.000000
   15      -15.628325   1.000000
   16      -15.533855   1.000000
   17      -15.405645   1.000000
   18      -15.311096   1.000000
   19       -9.402054   1.000000
   20       -9.316358   1.000000
   21       -9.082763   1.000000
   22       -8.980358   1.000000
   23       -8.829359   1.000000
   24       -8.740408   1.000000
   25       -8.575309   1.000000
   26       -8.513068   1.000000
   27       -8.463008   1.000000
   28       -8.386344   1.000000
   29       -8.310519   1.000000
   30       -8.246709   1.000000
   31       -8.150580   1.000000
   32       -8.079583   1.000000
   33       -7.945892   1.000000
   34       -7.855623   1.000000
   35       -7.749187   1.000000
   36       -7.657908   1.000000
   37       -7.615386   1.000000
   38       -7.496004   1.000000
   39       -7.410792   1.000000
   40       -7.352007   1.000000
   41       -7.272848   1.000000
   42       -7.257400   1.000000
   43       -7.113413   1.000000
   44       -6.989873   1.000000
   45       -6.884713   1.000000
   46       -6.851915   1.000000
   47       -6.776978   1.000000
   48       -6.655132   1.000000
   49       -6.580607   1.000000
   50       -6.502860   1.000000
   51       -6.418592   1.000000
   52       -6.373790   1.000000
   53       -6.340740   1.000000
   54       -6.244968   1.000000
   55       -6.165522   1.000000
   56       -6.115934   1.000000
   57       -6.032386   1.000000
   58       -5.817517   1.000000
   59       -5.695672   1.000000
   60       -5.548792   1.000000
   61       -5.519305   1.000000
   62       -5.436212   1.000000
   63       -5.340535   1.000000
   64       -5.277730   1.000000
   65       -5.249960   1.000000
   66       -5.070028   1.000000
   67       -4.989277   1.000000
   68       -4.908063   1.000000
   69       -4.786912   1.000000
   70       -4.693114   1.000000
   71       -4.468059   1.000000
   72       -4.398260   1.000000
   73       -4.246719   1.000000
   74       -4.105257   1.000000
   75       -4.074689   1.000000
   76       -4.006162   1.000000
   77       -3.835167   0.999999
   78       -3.697934   0.999947
   79       -3.545964   0.997444
   80       -3.117081   0.407980
   81       -2.973743   0.106327
   82       -2.777041   0.004180
   83       -2.717512   0.001114
   84       -2.639280   0.000152
   85       -2.557494   0.000014
   86       -2.445342   0.000000
   87       -2.421916   0.000000
   88       -2.308331   0.000000
   89       -2.142325   0.000000
   90       -2.005719   0.000000
   91       -1.706321   0.000000
   92       -1.530674   0.000000
   93       -1.429060   0.000000
   94       -1.304732   0.000000
   95       -1.206611   0.000000
   96       -1.132137   0.000000
   97       -1.097013   0.000000
   98       -1.001474   0.000000
   99       -0.902566   0.000000
  100       -0.713920   0.000000
  101       -0.658357   0.000000
  102       -0.624119   0.000000
  103       -0.466332   0.000000
  104       -0.315238   0.000000
  105       -0.267353   0.000000
  106       -0.141107   0.000000
  107       -0.047120   0.000000
  108        0.031815   0.000000
  109        0.201036   0.000000
  110        0.348134   0.000000
  111        0.475058   0.000000
  112        0.647100   0.000000
  113        0.772123   0.000000
  114        0.902421   0.000000
  115        0.973948   0.000000
  116        1.070248   0.000000
  117        1.246973   0.000000
  118        1.792773   0.000000
  119        1.954697   0.000000
  120        2.280109   0.000000
 
  0.2500000E+00  0.1250000E+00  0.0000000E+00  0.3125000E-01
    1      -17.648231   1.000000
    2      -17.068736   1.000000
    3      -16.855887   1.000000
    4      -16.555315   1.000000
    5      -16.459783   1.000000
    6      -16.360738   1.000000
    7      -16.284010   1.000000
    8      -16.235149   1.000000
    9      -16.159756   1.000000
   10      -16.114797   1.000000
   11      -15.968296   1.000000
   12      -15.880263   1.000000
   13      -15.751456   1.000000
   14      -15.702433   1.000000
   15      -15.620080   1.000000
   16      -15.529748   1.000000
   17      -15.440658   1.000000
   18      -15.318386   1.000000
   19       -9.616438   1.000000
   20       -9.432631   1.000000
   21       -9.211549   1.000000
   22       -9.007773   1.000000
   23       -8.865088   1.000000
   24       -8.691717   1.000000
   25       -8.514862   1.000000
   26       -8.476819   1.000000
   27       -8.419389   1.000000
   28       -8.373964   1.000000
   29       -8.293613   1.000000
   30       -8.238863   1.000000
   31       -8.144886   1.000000
   32       -8.042056   1.000000
   33       -8.002986   1.000000
   34       -7.845451   1.000000
   35       -7.785047   1.000000
   36       -7.550137   1.000000
   37       -7.465520   1.000000
   38       -7.435334   1.000000
   39       -7.361868   1.000000
   40       -7.281477   1.000000
   41       -7.251479   1.000000
   42       -7.094576   1.000000
   43       -7.051046   1.000000
   44       -6.990839   1.000000
   45       -6.915590   1.000000
   46       -6.776198   1.000000
   47       -6.750057   1.000000