   27   27  100    1
  0.9710400E+02  0.1002848E-08  0.1002848E-08  0.3000000E-08  0.5000000E-15
  1.000000000000000E-004
  CAR 
 unknown system                          
    159     34    120
 
  0.0000000E+00  0.0000000E+00  0.0000000E+00  0.1562500E-01
    1      -17.797097   1.000000
    2      -16.749636   1.000000
    3      -16.654911   1.000000
    4      -16.571189   1.000000
    5      -16.512091   1.000000
    6      -16.462186   1.000000
    7      -16.392797   1.000000
    8      -16.311787   1.000000
    9      -16.216803   1.000000
   10      -16.159510   1.000000
   11      -16.065012   1.000000
   12      -16.014801   1.000000
   13      -15.869201   1.000000
   14      -15.604002   1.000000
   15      -15.565847   1.000000
   16      -15.454988   1.000000
   17      -15.370253   1.000000
   18      -15.239932   1.000000
   19       -9.304303   1.000000
   20       -9.082342   1.000000
   21       -8.963721   1.000000
   22       -8.902597   1.000000
   23       -8.814301   1.000000
   24       -8.740084   1.000000
   25       -8.626055   1.000000
   26       -8.603331   1.000000
   27       -8.507873   1.000000
   28       -8.402820   1.000000
   29       -8.337968   1.000000
   30       -8.290970   1.000000
   31       -8.235850   1.000000
   32       -8.114532   1.000000
   33       -8.022610   1.000000
   34       -7.944256   1.000000
   35       -7.904292   1.000000
   36       -7.804032   1.000000
   37       -7.678424   1.000000
   38       -7.516108   1.000000
   39       -7.482870   1.000000
   40       -7.448320   1.000000
   41       -7.279288   1.000000
   42       -7.165852   1.000000
   43       -7.130331   1.000000
   44       -7.000171   1.000000
   45       -6.840223   1.000000
   46       -6.810443   1.000000
   47       -6.643779   1.000000
   48       -6.609956   1.000000
   49       -6.571485   1.000000
   50       -6.538279   1.000000
   51       -6.492838   1.000000
   52       -6.415891   1.000000
   53       -6.318183   1.000000
   54       -6.255440   1.000000
   55       -6.200446   1.000000
   56       -6.192664   1.000000
   57       -6.076322   1.000000
   58       -5.921080   1.000000
   59       -5.722241   1.000000
   60       -5.557975   1.000000
   61       -5.522254   1.000000
   62       -5.439182   1.000000
   63       -5.218640   1.000000
   64       -5.122820   1.000000
   65       -5.039823   1.000000
   66       -4.982013   1.000000
   67       -4.886156   1.000000
   68       -4.866745   1.000000
   69       -4.811754   1.000000
   70       -4.735276   1.000000
   71       -4.642857   1.000000
   72       -4.607840   1.000000
   73       -4.501665   1.000000
   74       -4.333636   1.000000
   75       -4.280422   1.000000
   76       -4.116821   1.000000
   77       -3.809032   0.999408
   78       -3.589212   0.954312
   79       -3.516035   0.879149
   80       -3.403053   0.644994
   81       -3.293140   0.342607
   82       -2.863048   0.000284
   83       -2.731133   0.000006
   84       -2.620965   0.000000
   85       -2.517514   0.000000
   86       -2.481601   0.000000
   87       -2.364240   0.000000
   88       -2.262802   0.000000
   89       -2.216697   0.000000
   90       -2.072007   0.000000
   91       -2.044631   0.000000
   92       -1.392171   0.000000
   93       -1.332208   0.000000
   94       -1.264296   0.000000
   95       -1.106833   0.000000
   96       -1.067388   0.000000
   97       -0.989832   0.000000
   98       -0.859896   0.000000
   99       -0.717152   0.000000
  100       -0.699309   0.000000
  101       -0.627693   0.000000
  102       -0.522844   0.000000
  103       -0.490433   0.000000
  104       -0.338183   0.000000
  105       -0.213979   0.000000
  106       -0.121382   0.000000
  107       -0.074107   0.000000
  108       -0.002479   0.000000
  109        0.074536   0.000000
  110        0.280276   0.000000
  111        0.328360   0.000000
  112        0.600312   0.000000
  113        0.758262   0.000000
  114        0.782927   0.000000
  115        0.844060   0.000000
  116        1.040220   0.000000
  117        1.118923   0.000000
  118        1.640208   0.000000
  119        1.837833   0.000000
  120        2.146264   0.000000
 
  0.1250000E+00  0.2775558E-16  0.0000000E+00  0.3125000E-01
    1      -17.771926   1.000000
    2      -16.784589   1.000000
    3      -16.731257   1.000000
    4      -16.638172   1.000000
    5      -16.490169   1.000000
    6      -16.411387   1.000000
    7      -16.371001   1.000000
    8      -16.328876   1.000000
    9      -16.239258   1.000000
   10      -16.087919   1.000000
   11      -16.042395   1.000000
   12      -15.989914   1.000000
   13      -15.850488   1.000000
   14      -15.611230   1.000000
   15      -15.577206   1.000000
   16      -15.448290   1.000000
   17      -15.379396   1.000000
   18      -15.247628   1.000000
   19       -9.286335   1.000000
   20       -9.190545   1.000000
   21       -9.070862   1.000000
   22       -9.018804   1.000000
   23       -8.797826   1.000000
   24       -8.711436   1.000000
   25       -8.670448   1.000000
   26       -8.565787   1.000000
   27       -8.498335   1.000000
   28       -8.414265   1.000000
   29       -8.381202   1.000000
   30       -8.194133   1.000000
   31       -8.138730   1.000000
   32       -8.070721   1.000000
   33       -8.024849   1.000000
   34       -7.879652   1.000000
   35       -7.817862   1.000000
   36       -7.706020   1.000000
   37       -7.658063   1.000000
   38       -7.570598   1.000000
   39       -7.486318   1.000000
   40       -7.360508   1.000000
   41       -7.313751   1.000000
   42       -7.237476   1.000000
   43       -7.137743   1.000000
   44       -7.012111   1.000000
   45       -6.859615   1.000000
   46       -6.822882   1.000000
   47       -6.727464   1.000000
   48       -6.663847   1.000000
   49       -6.565163   1.000000
   50       -6.476752   1.000000
   51       -6.457135   1.000000
   52       -6.388082   1.000000
   53       -6.307363   1.000000
   54       -6.255369   1.000000
   55       -6.193599   1.000000
   56       -6.159242   1.000000
   57       -6.022907   1.000000
   58       -5.925770   1.000000
   59       -5.714428   1.000000
   60       -5.559113   1.000000
   61       -5.522920   1.000000
   62       -5.452126   1.000000
   63       -5.344183   1.000000
   64       -5.169577   1.000000
   65       -5.144498   1.000000
   66       -5.032172   1.000000
   67       -4.912711   1.000000
   68       -4.878393   1.000000
   69       -4.787309   1.000000
   70       -4.689001   1.000000
   71       -4.617597   1.000000
   72       -4.525229   1.000000
   73       -4.445521   1.000000
   74       -4.320634   1.000000
   75       -4.227250   1.000000
   76       -4.071878   1.000000
   77       -3.882553   0.999916
   78       -3.696071   0.992733
   79       -3.564359   0.934790
   80       -3.455744   0.771689
   81       -3.136888   0.065493
   82       -2.849963   0.000201
   83       -2.737132   0.000007
   84       -2.621600   0.000000
   85       -2.514996   0.000000
   86       -2.454785   0.000000
   87       -2.359090   0.000000
   88       -2.242619   0.000000
   89       -2.185831   0.000000
   90       -2.063458   0.000000
   91       -2.057682   0.000000
   92       -1.398546   0.000000
   93       -1.318984   0.000000
   94       -1.253740   0.000000
   95       -1.102598   0.000000
   96       -1.060297   0.000000
   97       -0.982124   0.000000
   98       -0.867794   0.000000
   99       -0.794457   0.000000
  100       -0.725823   0.000000
  101       -0.672315   0.000000
  102       -0.545676   0.000000
  103       -0.517536   0.000000
  104       -0.348570   0.000000
  105       -0.265294   0.000000
  106       -0.200935   0.000000
  107       -0.118028   0.000000
  108       -0.064215   0.000000
  109        0.119649   0.000000
  110        0.270827   0.000000
  111        0.301891   0.000000
  112        0.572638   0.000000
  113        0.738570   0.000000
  114        0.830902   0.000000
  115        0.919659   0.000000
  116        1.087867   0.000000
  117        1.148825   0.000000
  118        1.684433   0.000000
  119        1.876468   0.000000
  120        2.181432   0.000000
 
  0.2500000E+00  0.5551115E-16  0.0000000E+00  0.3125000E-01
    1      -17.697573   1.000000
    2      -16.986626   1.000000
    3      -16.731726   1.000000
    4      -16.695214   1.000000
    5      -16.554077   1.000000
    6      -16.389836   1.000000
    7      -16.318964   1.000000
    8      -16.276859   1.000000
    9      -16.232012   1.000000
   10      -16.061028   1.000000
   11      -15.984647   1.000000
   12      -15.929382   1.000000
   13      -15.782166   1.000000
   14      -15.629952   1.000000
   15      -15.598155   1.000000
   16      -15.452940   1.000000
   17      -15.385282   1.000000
   18      -15.267963   1.000000
   19       -9.478045   1.000000
   20       -9.284714   1.000000
   21       -9.155549   1.000000
   22       -9.058057   1.000000
   23       -8.902800   1.000000
   24       -8.730604   1.000000
   25       -8.659698   1.000000
   26       -8.537841   1.000000
   27       -8.463167   1.000000
   28       -8.400964   1.000000
   29       -8.299395   1.000000
   30       -8.232601   1.000000
   31       -8.099456   1.000000
   32       -7.981381   1.000000
   33       -7.901199   1.000000
   34       -7.834606   1.000000
   35       -7.735168   1.000000
   36       -7.663274   1.000000
   37       -7.591377   1.000000
   38       -7.466023   1.000000
   39       -7.426471   1.000000
   40       -7.365272   1.000000
   41       -7.312381   1.000000
   42       -7.226592   1.000000
   43       -7.118968   1.000000
   44       -6.989540   1.000000
   45       -6.947207   1.000000
   46       -6.881244   1.000000
   47       -6.707615   1.000000
   48       -6.679998   1.000000
   49       -6.545494   1.000000
   50       -6.504762   1.000000
   51       -6.426438   1.000000
   52       -6.390356   1.000000
   53       -6.286480   1.000000
   54       -6.183546   1.000000
   55       -6.132600   1.000000
   56       -6.090199   1.000000
   57       -5.965694   1.000000
   58       -5.901667   1.000000
   59       -5.783559   1.000000
   60       -5.668608   1.000000
   61       -5.597246   1.000000
   62       -5.564248   1.000000
   63       -5.485978   1.000000
   64       -5.284033   1.000000
   65       -5.196822   1.000000
   66       -5.111105   1.000000
   67       -4.944517   1.000000
   68       -4.845764   1.000000
   69       -4.803337   1.000000
   70       -4.609782   1.000000
   71       -4.535300   1.000000
   72       -4.399723   1.000000
   73       -4.337481   1.000000
   74       -4.305045   1.000000
   75       -4.168586   1.000000
   76       -4.100416   1.000000
   77       -4.006292   0.999998
   78       -3.879442   0.999908
   79       -3.593044   0.956853
   80       -3.393125   0.618536
   81       -3.009148   0.007900
   82       -2.828658   0.000112
   83       -2.735411   0.000007
   84       -2.628084   0.000000
   85       -2.490125   0.000000
   86       -2.419439   0.000000
   87       -2.340397   0.000000
   88       -2.233401   0.000000
   89       -2.111787   0.000000
   90       -2.051457   0.000000
   91       -2.023360   0.000000
   92       -1.417989   0.000000
   93       -1.293415   0.000000
   94       -1.212869   0.000000
   95       -1.104890   0.000000
   96       -1.083113   0.000000
   97       -0.979177   0.000000
   98       -0.934613   0.000000
   99       -0.861065   0.000000
  100       -0.807152   0.000000
  101       -0.734237   0.000000
  102       -0.643414   0.000000
  103       -0.584060   0.000000
  104       -0.463842   0.000000
  105       -0.377814   0.000000
  106       -0.292515   0.000000
  107       -0.214262   0.000000
  108       -0.094291   0.000000
  109        0.124891   0.000000
  110        0.141259   0.000000
  111        0.348071   0.000000
  112        0.487761   0.000000
  113        0.792743   0.000000
  114        0.883046   0.000000
  115        0.969820   0.000000
  116        1.185321   0.000000
  117        1.309030   0.000000
  118        1.807163   0.000000
  119        1.987059   0.000000
  120        2.285656   0.000000
 
  0.3750000E+00  0.0000000E+00  0.0000000E+00  0.3125000E-01
    1      -17.578685   1.000000
    2      -17.200350   1.000000
    3      -16.754459   1.000000
    4      -16.692675   1.000000
    5      -16.613705   1.000000
    6      -16.416192   1.000000
    7      -16.263669   1.000000
    8      -16.251250   1.000000
    9      -16.175934   1.000000
   10      -16.068991   1.000000
   11      -15.928468   1.000000
   12      -15.871121   1.000000
   13      -15.744316   1.000000
   14      -15.648980   1.000000
   15      -15.595211   1.000000
   16      -15.483488   1.000000
   17      -15.367620   1.000000
   18      -15.291893   1.000000
   19       -9.686548   1.000000
   20       -9.383813   1.000000
   21       -9.152627   1.000000
   22       -9.046180   1.000000
   23       -8.938068   1.000000
   24       -8.769009   1.000000
   25       -8.633772   1.000000
   26       -8.516871   1.000000
   27       -8.462084   1.000000
   28       -8.344827   1.000000
   29       -8.315487   1.000000
   30       -8.170857   1.000000
   31       -8.090665   1.000000
   32       -7.962195   1.000000
   33       -7.912080   1.000000
   34       -7.842029   1.000000
   35       -7.752526   1.000000
   36       -7.658002   1.000000
   37       -7.603979   1.000000
   38       -7.471921   1.000000
   39       -7.363519   1.000000
   40       -7.272377   1.000000
   41       -7.193614   1.000000
   42       -7.113674   1.000000
   43       -7.078004   1.000000
   44       -6.973182   1.000000
   45       -6.913030   1.000000
   46       -6.800214   1.000000
   47       -6.703620   1.000000
   48       -6.612630   1.000000
   49       -6.517254   1.000000
   50       -6.482884   1.000000
   51       -6.427103   1.000000
   52       -6.365240   1.000000
   53       -6.241022   1.000000
   54       -6.186093   1.000000
   55       -6.129031   1.000000
   56       -6.068945   1.000000
   57       -5.993199   1.000000
   58       -5.934568   1.000000
   59       -5.854365   1.000000
   60       -5.773091   1.000000
   61       -5.749604   1.000000
   62       -5.701074   1.000000
   63       -5.563710   1.000000
   64       -5.309606   1.000000
   65       -5.190444   1.000000
   66       -5.126009   1.000000
   67       -4.985308   1.000000
   68       -4.829671   1.000000
   69       -4.749936   1.000000
   70       -4.713860   1.000000
   71       -4.483460   1.000000
   72       -4.390628   1.000000
   73       -4.333748   1.000000
   74       -4.251714   1.000000
   75       -4.188803   1.000000
   76       -4.123062   1.000000
   77       -3.977647   0.999995
   78       -3.866251   0.999867
   79       -3.639296   0.979441
   80       -3.325862   0.430939
   81       -2.941535   0.001917
   82       -2.826435   0.000106
   83       -2.713052   0.000003
   84       -2.631077   0.000000
   85       -2.459420   0.000000
   86       -2.421227   0.000000
   87       -2.304021   0.000000
   88       -2.240610   0.000000
   89       -2.068547   0.000000
   90       -2.018311   0.000000
   91       -1.925337   0.000000
   92       -1.447280   0.000000
   93       -1.271789   0.000000
   94       -1.204132   0.000000
   95       -1.163042   0.000000
   96       -1.100851   0.000000
   97       -1.034804   0.000000
   98       -0.937300   0.000000
   99       -0.872674   0.000000
  100       -0.856139   0.000000
  101       -0.802891   0.000000
  102       -0.760419   0.000000
  103       -0.659165   0.000000
  104       -0.594314   0.000000
  105       -0.476211   0.000000
  106       -0.376680   0.000000
  107       -0.232907   0.000000
  108       -0.143380   0.000000
  109        0.024563   0.000000
  110        0.150215   0.000000
  111        0.319175   0.000000
  112        0.455033   0.000000
  113        0.799601   0.000000
  114        0.934975   0.000000
  115        1.012613   0.000000
  116        1.304044   0.000000
  117        1.448863   0.000000
  118        1.990944   0.000000
  119        2.158803   0.000000
  120        2.455586   0.000000
 
  0.5000000E+00  0.1110223E-15  0.0000000E+00  0.1562500E-01
    1      -17.460128   1.000000
    2      -17.352464   1.000000
    3      -16.767564   1.000000
    4      -16.673221   1.000000
    5      -16.646750   1.000000
    6      -16.426847   1.000000
    7      -16.262736   1.000000
    8      -16.230062   1.000000
    9      -16.125053   1.000000
   10      -16.099192   1.000000
   11      -15.899100   1.000000
   12      -15.831233   1.000000
   13      -15.762422   1.000000
   14      -15.659177   1.000000
   15      -15.583546   1.000000
   16      -15.495237   1.000000
   17      -15.357537   1.000000
   18      -15.303221   1.000000
   19       -9.761930   1.000000
   20       -9.426164   1.000000
   21       -9.153188   1.000000
   22       -9.065713   1.000000
   23       -8.859799   1.000000
   24       -8.815208   1.000000
   25       -8.602048   1.000000
   26       -8.565284   1.000000
   27       -8.485382   1.000000
   28       -8.362534   1.000000
   29       -8.188478   1.000000
   30       -8.141390   1.000000
   31       -8.069253   1.000000
   32       -8.030904   1.000000
   33       -7.940646   1.000000
   34       -7.866651   1.000000
   35       -7.791732   1.000000
   36       -7.645949   1.000000
   37       -7.599948   1.000000
   38       -7.477794   1.000000
   39       -7.393804   1.000000
   40       -7.292241   1.000000
   41       -7.077161   1.000000
   42       -7.064647   1.000000
   43       -7.035531   1.000000
   44       -6.863906   1.000000
   45       -6.847751   1.000000
   46       -6.698342   1.000000
   47       -6.660400   1.000000
   48       -6.609439   1.000000
   49       -6.570762   1.000000
   50       -6.512221   1.000000
   51       -6.460769   1.000000
   52       -6.334389   1.000000
   53       -6.310660   1.000000
   54       -6.238734   1.000000
   55       -6.136970   1.000000
   56       -6.059750   1.000000
   57       -5.970756   1.000000
   58       -5.941168   1.000000
   59       -5.880933   1.000000
   60       -5.806449   1.000000
   61       -5.745535   1.000000
   62       -5.682817   1.000000
   63       -5.580475   1.000000
   64       -5.347677   1.000000
   65       -5.280702   1.000000
   66       -5.090175   1.000000
   67       -5.067924   1.000000
   68       -4.919155   1.000000
   69       -4.739773   1.000000
   70       -4.604884   1.000000
   71       -4.510425   1.000000
   72       -4.402428   1.000000
   73       -4.350837   1.000000
   74       -4.245034   1.000000
   75       -4.183882   1.000000
   76       -4.100619   1.000000
   77       -3.942778   0.999986
   78       -3.824081   0.999594
   79       -3.679158   0.989943
   80       -3.298147   0.355708
   81       -2.918663   0.001132
   82       -2.833816   0.000129
   83       -2.689491   0.000001
   84       -2.643300   0.000000
   85       -2.445061   0.000000
   86       -2.420945   0.000000
   87       -2.298415   0.000000
   88       -2.233542   0.000000
   89       -2.050535   0.000000
   90       -2.006160   0.000000
   91       -1.871237   0.000000
   92       -1.457577   0.000000
   93       -1.295268   0.000000
   94       -1.231821   0.000000
   95       -1.171457   0.000000
   96       -1.084549   0.000000
   97       -1.051068   0.000000
   98       -0.951240   0.000000
   99       -0.887561   0.000000
  100       -0.842894   0.000000
  101       -0.825055   0.000000
  102       -0.818229   0.000000
  103       -0.699769   0.000000
  104       -0.644782   0.000000
  105       -0.513230   0.000000
  106       -0.407469   0.000000
  107       -0.232852   0.000000
  108       -0.174994   0.000000
  109       -0.006321   0.000000
  110        0.150627   0.000000
  111        0.301788   0.000000
  112        0.448549   0.000000
  113        0.789627   0.000000
  114        0.974498   0.000000
  115        1.023695   0.000000
  116        1.344892   0.000000
  117        1.503593   0.000000
  118        2.207383   0.000000
  119        2.244754   0.000000
  120        2.369482   0.000000
 
  0.0000000E+00  0.1250000E+00  0.0000000E+00  0.3125000E-01
    1      -17.773318   1.000000
    2      -16.790761   1.000000
    3      -16.705384   1.000000
    4      -16.647240   1.000000
    5      -16.521257   1.000000
    6      -16.415578   1.000000
    7      -16.366247   1.000000
    8      -16.284724   1.000000
    9      -16.205430   1.000000
   10      -16.162223   1.000000
   11      -16.056201   1.000000
   12      -15.945317   1.000000
   13      -15.854610   1.000000
   14      -15.621063   1.000000
   15      -15.579974   1.000000
   16      -15.455688   1.000000
   17      -15.373752   1.000000
   18      -15.243488   1.000000
   19       -9.324154   1.000000
   20       -9.150455   1.000000
   21       -9.021465   1.000000
   22       -8.962622   1.000000
   23       -8.877287   1.000000
   24       -8.763324   1.000000
   25       -8.675919   1.000000
   26       -8.597139   1.000000
   27       -8.497941   1.000000
   28       -8.393499   1.000000
   29       -8.367378   1.000000
   30       -8.217722   1.000000
   31       -8.105797   1.000000
   32       -8.028672   1.000000
   33       -7.958133   1.000000
   34       -7.905341   1.000000
   35       -7.831111   1.000000
   36       -7.737471   1.000000
   37       -7.639607   1.000000
   38       -7.558293   1.000000
   39       -7.511789   1.000000
   40       -7.490665   1.000000
   41       -7.246787   1.000000
   42       -7.173495   1.000000
   43       -7.104376   1.000000
   44       -7.057152   1.000000
   45       -6.912499   1.000000
   46       -6.789413   1.000000
   47       -6.642822   1.000000
   48       -6.609091   1.000000
   49       -6.582155   1.000000
   50       -6.532721   1.000000
   51       -6.474513   1.000000
   52       -6.410212   1.000000
   53       -6.376410   1.000000
   54       -6.226569   1.000000
   55       -6.199304   1.000000
   56       -6.181750   1.000000
   57       -5.988360   1.000000
   58       -5.912035   1.000000
   59       -5.723476   1.000000
   60       -5.553775   1.000000
   61       -5.528067   1.000000
   62       -5.490936   1.000000
   63       -5.311410   1.000000
   64       -5.270199   1.000000
   65       -5.098089   1.000000
   66       -4.981734   1.000000
   67       -4.922224   1.000000
   68       -4.852502   1.000000
   69       -4.720027   1.000000
   70       -4.673481   1.000000
   71       -4.611066   1.000000
   72       -4.600922   1.000000
   73       -4.459841   1.000000
   74       -4.274867   1.000000
   75       -4.234838   1.000000
   76       -4.134714   1.000000
   77       -3.904807   0.999956
   78       -3.716489   0.995176
   79       -3.515700   0.878672
   80       -3.348402   0.494176
   81       -3.262927   0.267960
   82       -2.817737   0.000083
   83       -2.712377   0.000003
   84       -2.607160   0.000000
   85       -2.510862   0.000000
   86       -2.461341   0.000000
   87       -2.337446   0.000000
   88       -2.230873   0.000000
   89       -2.207125   0.000000
   90       -2.093517   0.000000
   91       -2.028006   0.000000
   92       -1.404137   0.000000
   93       -1.354728   0.000000
   94       -1.251893   0.000000
   95       -1.117207   0.000000
   96       -1.072538   0.000000
   97       -0.977165   0.000000
   98       -0.875850   0.000000
   99       -0.813394   0.000000
  100       -0.741595   0.000000
  101       -0.651855   0.000000
  102       -0.577063   0.000000
  103       -0.518594   0.000000
  104       -0.400688   0.000000
  105       -0.270847   0.000000
  106       -0.131240   0.000000
  107       -0.095125   0.000000
  108        0.004202   0.000000
  109        0.076789   0.000000
  110        0.269418   0.000000
  111        0.326098   0.000000
  112        0.577366   0.000000
  113        0.759343   0.000000
  114        0.813016   0.000000
  115        0.923868   0.000000
  116        1.075305   0.000000
  117        1.129750   0.000000
  118        1.682133   0.000000
  119        1.877849   0.000000
  120        2.180899   0.000000
 
  0.1250000E+00  0.1250000E+00  0.0000000E+00  0.3125000E-01
    1      -17.725260   1.000000
    2      -16.873900   1.000000
    3      -16.817950   1.000000
    4      -16.696661   1.000000
    5      -16.444321   1.000000
    6      -16.396206   1.000000
    7      -16.335596   1.000000
    8      -16.307623   1.000000
    9      -16.243361   1.000000
   10      -16.080955   1.000000
   11      -16.014255   1.000000
   12      -15.910340   1.000000
   13      -15.806809   1.000000
   14      -15.642861   1.000000
   15      -15.594496   1.000000
   16      -15.453458   1.000000
   17      -15.391925   1.000000
   18      -15.248572   1.000000
   19       -9.356577   1.000000
   20       -9.289982   1.000000
   21       -9.177484   1.000000
   22       -9.048649   1.000000
   23       -8.856546   1.000000
   24       -8.696011   1.000000
   25       -8.676924   1.000000
   26       -8.582905   1.000000
   27       -8.530826   1.000000
   28       -8.369980   1.000000
   29       -8.289242   1.000000
   30       -8.196211   1.000000
   31       -8.098687   1.000000
   32       -8.015154   1.000000
   33       -7.922761   1.000000
   34       -7.874953   1.000000
   35       -7.729973   1.000000
   36       -7.643375   1.000000
   37       -7.603836   1.000000
   38       -7.540501   1.000000
   39       -7.444658   1.000000
   40       -7.400635   1.000000
   41       -7.290869   1.000000
   42       -7.203793   1.000000
   43       -7.136980   1.000000
   44       -6.993875   1.000000
   45       -6.978731   1.000000
   46       -6.827052   1.000000
   47       -6.712741   1.000000
   48       -6.637183   1.000000
   49       -6.580357   1.000000
   50       -6.509913   1.000000
   51       -6.449524   1.000000
   52       -6.381513   1.000000
   53       -6.307419   1.000000
   54       -6.257815   1.000000
   55       -6.169003   1.000000
   56       -6.102511   1.000000
   57       -5.944929   1.000000
   58       -5.889575   1.000000
   59       -5.725076   1.000000
   60       -5.646030   1.000000
   61       -5.585085   1.000000
   62       -5.553321   1.000000
   63       -5.431078   1.000000
   64       -5.286891   1.000000
   65       -5.174026   1.000000
   66       -5.124889   1.000000
   67       -4.915628   1.000000
   68       -4.795097   1.000000
   69       -4.780004   1.000000
   70       -4.611442   1.000000
   71       -4.542649   1.000000
   72       -4.452557   1.000000
   73       -4.393131   1.000000
   74       -4.284122   1.000000
   75       -4.191579   1.000000
   76       -4.132123   1.000000
   77       -4.014872   0.999999
   78       -3.851617   0.999803
   79       -3.501762   0.857651
   80       -3.421670   0.692689
   81       -3.114879   0.047871
   82       -2.780634   0.000028
   83       -2.715760   0.000004
   84       -2.577475   0.000000
   85       -2.508786   0.000000
   86       -2.421725   0.000000
   87       -2.305065   0.000000
   88       -2.223483   0.000000
   89       -2.152722   0.000000
   90       -2.072021   0.000000
   91       -2.031682   0.000000
   92       -1.425625   0.000000
   93       -1.332079   0.000000
   94       -1.263035   0.000000
   95       -1.120297   0.000000
   96       -1.067248   0.000000
   97       -0.987184   0.000000
   98       -0.932584   0.000000
   99       -0.862412   0.000000
  100       -0.789877   0.000000
  101       -0.716472   0.000000
  102       -0.609937   0.000000
  103       -0.594617   0.000000
  104       -0.417196   0.000000
  105       -0.342004   0.000000
  106       -0.278361   0.000000
  107       -0.149106   0.000000
  108       -0.072646   0.000000
  109        0.108881   0.000000
  110        0.173225   0.000000
  111        0.369676   0.000000
  112        0.540532   0.000000
  113        0.755760   0.000000
  114        0.846325   0.000000
  115        1.029151   0.000000
  116        1.142511   0.000000
  117        1.216217   0.000000
  118        1.763019   0.000000
  119        1.953819   0.000000
  120        2.249814   0.000000
 
  0.2500000E+00  0.1250000E+00  0.0000000E+00  0.3125000E-01
    1      -17.630295   1.000000
    2      -17.071420   1.000000
    3      -16.895999   1.000000
    4      -16.685342   1.000000
    5      -16.443891   1.000000
    6      -16.397010   1.000000
    7      -16.295679   1.000000
    8      -16.278347   1.000000
    9      -16.235132   1.000000
   10      -16.050327   1.000000
   11      -15.966067   1.000000
   12      -15.858915   1.000000
   13      -15.757248   1.000000
   14      -15.669730   1.000000
   15      -15.600036   1.000000
   16      -15.469215   1.000000
   17      -15.387961   1.000000
   18      -15.264602   1.000000
   19       -9.562486   1.000000
   20       -9.385284   1.000000
   21       -9.313095   1.000000
   22       -9.027622   1.000000
   23       -8.852972   1.000000
   24       -8.665958   1.000000
   25       -8.594472   1.000000
   26       -8.518616   1.000000
   27       -8.475018   1.000000
   28       -8.400310   1.000000
   29       -8.272582   1.000000
   30       -8.215961   1.000000
   31       -8.082470   1.000000
   32       -8.004494   1.000000
   33       -7.972541   1.000000
   34       -7.897420   1.000000
   35       -7.760243   1.000000
   36       -7.605248   1.000000
   37       -7.547631   1.000000
   38       -7.441885   1.000000
   39       -7.387953   1.000000
   40       -7.284942   1.000000
   41       -7.213097   1.000000
   42       -7.191585   1.000000
   43       -7.077110   1.000000
   44       -6.999526   1.000000
   45       -6.937669   1.000000
   46       -6.838415   1.000000
   47       -6.722425   1.000000