unknown system                          
           1
     8.857991    5.101579    0.000000
    -8.859638    5.104413    0.000000
     0.000000    0.000000   30.000000
   V    Mo   W    S 
   3   3   3  18
Direct configuration=     1
   0.66666669  0.33333334  0.00000000
   0.33333334  0.00000000  0.00000000
   0.66666669  0.66666669  0.00000000
   0.33333334  0.66666669  0.00000000
   0.33333334  0.33333334  0.00000000
   0.66666669  0.00000000  0.00000000
   0.00000000  0.00000000  0.00000000
   1.00000000  0.33333334  0.00000000
   0.00000000  0.66666669  0.00000000
   0.11068511  0.22244981  0.95539999
   0.22244981  0.11068511  0.04460000
   0.11068511  0.55578315  0.95539999
   0.22244981  0.44401845  0.04460000
   0.11068511  0.88911647  0.95539999
   0.22244981  0.77735180  0.04460000
   0.44401845  0.22244981  0.95539999
   0.55578315  0.11068511  0.04460000
   0.44401845  0.55578315  0.95539999
   0.55578315  0.44401845  0.04460000
   0.44401845  0.88911647  0.95539999
   0.55578315  0.77735180  0.04460000
   0.77735180  0.22244981  0.95539999
   0.88911647  0.11068511  0.04460000
   0.77735180  0.55578315  0.95539999
   0.88911647  0.44401845  0.04460000
   0.77735180  0.88911647  0.95539999
   0.88911647  0.77735180  0.04460000
unknown system                          
           1
     8.668765    4.994941    0.000000
    -8.670542    4.998002    0.000000
     0.000000    0.000000   30.000000
   V    Mo   W    S 
   3   3   3  18
Direct configuration=     2
   0.66513570  0.33230350 -0.00001530
   0.33490185  0.00032492  0.00016287
   0.66432227  0.66631514 -0.00014928
   0.33472127  0.66665802  0.00015581
   0.33357621  0.33464489  0.00001449
   0.66525662 -0.00130323 -0.00000269
  -0.00000527  0.00134519 -0.00016255
   1.00131731  0.33324817 -0.00003366
   0.00109685  0.66656081 -0.00003792
   0.11008558  0.22156357  0.95065050
   0.22368128  0.10806000  0.04797730
   0.11009697  0.55490229  0.95075849
   0.22114661  0.44397630  0.04928202
   0.11462984  0.89055378  0.95193956
   0.22342211  0.78178697  0.04810785
   0.44651457  0.21997787  0.95305828
   0.55310520  0.11308466  0.04699711
   0.44899568  0.55768126  0.95188367
   0.55984908  0.44628065  0.04688265
   0.44199442  0.89123053  0.95201236
   0.55775878  0.77528093  0.04803810
   0.77628692  0.22502869  0.95206396
   0.88954403  0.11159564  0.04928069
   0.77417628  0.55401876  0.95313301
   0.88510401  0.44257991  0.04808233
   0.77642938  0.88463768  0.95190932
   0.88507088  0.77587757  0.04801092
unknown system                          
           1
     8.487336    4.898360    0.000000
    -8.487261    4.898211    0.000000
     0.000000    0.000000   30.000000
   V    Mo   W    S 
   3   3   3  18
Direct configuration=     3
   0.66477070  0.33202391 -0.00005665
   0.33530724  0.00030152  0.00017661
   0.66361542  0.66626978 -0.00015906
   0.33487337  0.66645828  0.00016829
   0.33303553  0.33498988  0.00005371
   0.66503449 -0.00175172 -0.00004340
  -0.00000474  0.00207108 -0.00012308
   1.00198736  0.33318093 -0.00003771
   0.00156680  0.66647455 -0.00003112
   0.10984458  0.22146996  0.95056372
   0.22347981  0.10790697  0.04792648
   0.10989302  0.55481233  0.95075405
   0.22093279  0.44388407  0.04938685
   0.11450308  0.89052250  0.95201859
   0.22328536  0.78178886  0.04811989
   0.44656110  0.21996751  0.95311641
   0.55303612  0.11309922  0.04700815
   0.44918552  0.55779607  0.95179040
   0.55992628  0.44635383  0.04684287
   0.44193731  0.89128164  0.95198210
   0.55781706  0.77520345  0.04813580
   0.77646372  0.22518024  0.95213080
   0.88977706  0.11169502  0.04927891
   0.77435575  0.55409099  0.95324006
   0.88525260  0.44263025  0.04800096
   0.77656880  0.88460273  0.95189949
   0.88520833  0.77591062  0.04785676
unknown system                          
           1
     8.278891    4.772921    0.000000
    -8.278386    4.772027    0.000000
     0.000000    0.000000   30.000000
   V    Mo   W    S 
   3   3   3  18
Direct configuration=     4
   0.66393078  0.33116236 -0.00020856
   0.33629853 -0.00033602  0.00015202
   0.66128659  0.66646305 -0.00013334
   0.33471355  0.66535454  0.00015086
   0.32985160  0.33589895  0.00016443
   0.66476173 -0.00328621 -0.00018437
   0.00006841  0.00530428  0.00006862
   1.00486429  0.33284781 -0.00004692
   0.00352741  0.66606515  0.00000928
   0.10981684  0.22155567  0.94851414
   0.22395046  0.10742362  0.04917144
   0.11000129  0.55481851  0.94909647
   0.22092985  0.44402181  0.05144380
   0.11555792  0.89126031  0.95087290
   0.22411900  0.78298529  0.04965589
   0.44697638  0.21959048  0.95206571
   0.55249527  0.11355258  0.04837649
   0.45052973  0.55853751  0.94998106
   0.56093118  0.44696753  0.04798983
   0.44127680  0.89176656  0.95045743
   0.55843439  0.77455353  0.04995279
   0.77605474  0.22574251  0.95098621
   0.88975447  0.11172904  0.05090966
   0.77349085  0.55360462  0.95231901
   0.88430950  0.44196207  0.04915672
   0.77598628  0.88333584  0.95038266
   0.88429663  0.77533306  0.04869570
unknown system                          
           1
     8.290998    4.775382    0.000000
    -8.288664    4.771319    0.000000
     0.000000    0.000000   30.000000
   V    Mo   W    S 
   3   3   3  18
Direct configuration=     5
   0.66264665  0.33001495 -0.00041315
   0.33783103 -0.00253537 -0.00004136
   0.65691490  0.66685308  0.00006689
   0.33368495  0.66302373  0.00005257
   0.32282911  0.33728298  0.00020734
   0.66420529 -0.00644046 -0.00032533
   0.00050768  0.01281296  0.00029174
   1.01120224  0.33234326 -0.00001480
   0.00751239  0.66461766  0.00012859
   0.11034514  0.22191812  0.94538758
   0.22481225  0.10775647  0.05075946
   0.11084437  0.55469434  0.94681562
   0.22132033  0.44479755  0.05454057
   0.11677476  0.89235739  0.94967195
   0.22587566  0.78428203  0.05186447
   0.44675534  0.21963125  0.95073155
   0.55220920  0.11372413  0.05036863
   0.45133502  0.55893357  0.94747711
   0.56091409  0.44732773  0.04948104
   0.44087842  0.89185898  0.94841335
   0.55867005  0.77380342  0.05240729
   0.77597732  0.22597219  0.94964147
   0.88894002  0.11198206  0.05316546
   0.77271118  0.55327905  0.95113258
   0.88352366  0.44092251  0.05055401
   0.77549273  0.88202050  0.94828773
   0.88350069  0.77498037  0.04934753
unknown system                          
           1
     8.290685    4.775055    0.000000
    -8.288368    4.771019    0.000000
     0.000000    0.000000   30.000000
   V    Mo   W    S 
   3   3   3  18
Direct configuration=     6
   0.66215271  0.33007950 -0.00049173
   0.33856949 -0.00388007 -0.00005920
   0.65528681  0.66668799  0.00007850
   0.33324620  0.66301508  0.00010711
   0.32166550  0.33744523  0.00018107
   0.66377804 -0.00737498 -0.00028687
   0.00067246  0.01518219  0.00021170
   1.01257273  0.33275261  0.00007733
   0.00890856  0.66327280  0.00019066
   0.11043548  0.22207884  0.94490201
   0.22483812  0.10851431  0.05060468
   0.11108866  0.55426121  0.94656293
   0.22151224  0.44530114  0.05490986
   0.11645542  0.89250717  0.94998109
   0.22640491  0.78416263  0.05203295
   0.44598354  0.21988574  0.95089205
   0.55236450  0.11336165  0.05037766
   0.45062783  0.55853253  0.94734064
   0.55977485  0.44695939  0.04943061
   0.44117413  0.89139258  0.94828689
   0.55822374  0.77369438  0.05254569
   0.77670776  0.22572559  0.94986330
   0.88855374  0.11252217  0.05335928
   0.77305491  0.55366333  0.95131006
   0.88409210  0.44054497  0.05049415
   0.77584926  0.88226912  0.94824525
   0.88422075  0.77565736  0.04885221
unknown system                          
           1
     8.297609    4.789413    0.000000
    -8.298054    4.790164    0.000000
     0.000000    0.000000   30.000000
   V    Mo   W    S 
   3   3   3  18
Direct configuration=     7
   0.66209284  0.33008886 -0.00050441
   0.33864753 -0.00399676 -0.00006212
   0.65511595  0.66665662  0.00007885
   0.33321226  0.66301914  0.00010848
   0.32154820  0.33748110  0.00018071
   0.66373430 -0.00747600 -0.00028655
   0.00067719  0.01542247  0.00021176
   1.01272117  0.33279273  0.00007910
   0.00904437  0.66312642  0.00019421
   0.11043879  0.22210197  0.94486416
   0.22483826  0.10854875  0.05059230
   0.11110972  0.55423707  0.94653652
   0.22153191  0.44533703  0.05494086
   0.11643529  0.89251152  0.95000770
   0.22644146  0.78416301  0.05205583
   0.44593677  0.21988975  0.95090399
   0.55236924  0.11334175  0.05038246
   0.45059415  0.55852194  0.94732374
   0.55971717  0.44694443  0.04943075
   0.44119175  0.89136823  0.94827060
   0.55820014  0.77368035  0.05256475
   0.77674827  0.22571608  0.94988254
   0.88853244  0.11255689  0.05337471
   0.77308016  0.55369296  0.95132623
   0.88411754  0.44051800  0.05049771
   0.77586488  0.88227498  0.94823862
   0.88427269  0.77569518  0.04880639
unknown system                          
           1
     8.293385    4.788405    0.000000
    -8.293946    4.789358    0.000000
     0.000000    0.000000   30.000000
   V    Mo   W    S 
   3   3   3  18
Direct configuration=     8
   0.66381055  0.32976675 -0.00014166
   0.33592374 -0.00126385 -0.00001762
   0.65936736  0.66811960  0.00007019
   0.33480590  0.66270482  0.00001228
   0.32424074  0.33688463  0.00018181
   0.66494531 -0.00547744 -0.00034600
   0.00058501  0.00946454  0.00028391
   1.00946210  0.33128833 -0.00000222
   0.00570575  0.66768561 -0.00002191
   0.11036881  0.22133024  0.94559992
   0.22473950  0.10773350  0.05083958
   0.11054965  0.55503971  0.94731583
   0.22109803  0.44452274  0.05439003
   0.11743213  0.89280387  0.94934006
   0.22572180  0.78426745  0.05136026
   0.44666141  0.21985118  0.95065121
   0.55185085  0.11346782  0.05030691
   0.45130500  0.55870897  0.94778387
   0.56077845  0.44742105  0.04933722
   0.44032893  0.89158001  0.94872688
   0.55852007  0.77352953  0.05213454
   0.77594463  0.22584516  0.94929690
   0.88929303  0.11143340  0.05313329
   0.77241651  0.55311105  0.95097675
   0.88390441  0.44150412  0.05039113
   0.77564093  0.88199289  0.94833853
   0.88281385  0.77489877  0.05005822
unknown system                          
           1
     8.282492    4.777138    0.000000
    -8.279298    4.771588    0.000000
     0.000000    0.000000   30.000000
   V    Mo   W    S 
   3   3   3  18
Direct configuration=     9
   0.66434071  0.32955272 -0.00004048
   0.33517963 -0.00045358 -0.00000463
   0.66062396  0.66862334  0.00006009
   0.33520954  0.66242024 -0.00000163
   0.32471130  0.33669309  0.00018014
   0.66536100 -0.00482836 -0.00035598
   0.00060315  0.00780898  0.00028599
   1.00862195  0.33071414 -0.00001907
   0.00470973  0.66918736 -0.00007093
   0.11032974  0.22109492  0.94581381
   0.22470428  0.10760623  0.05091955
   0.11036989  0.55518676  0.94757180
   0.22094567  0.44429970  0.05422824
   0.11766695  0.89292521  0.94912899
   0.22553800  0.78426027  0.05115051
   0.44687063  0.21991803  0.95060478
   0.55175049  0.11345286  0.05026734
   0.45146578  0.55870266  0.94790402
   0.56096035  0.44748933  0.04928518
   0.44015767  0.89160119  0.94887717
   0.55858452  0.77354344  0.05201617
   0.77578315  0.22582522  0.94916160
   0.88946298  0.11114189  0.05304920
   0.77224818  0.55295237  0.95089499
   0.88394524  0.44178587  0.05031431
   0.77561509  0.88196296  0.94836798
   0.88245489  0.77474760  0.05041079
unknown system                          
           1
     8.281662    4.772223    0.000000
    -8.277985    4.765839    0.000000
     0.000000    0.000000   30.000000
   V    Mo   W    S 
   3   3   3  18
Direct configuration=    10
   0.66524971  0.32808967  0.00009080
   0.33436875  0.00084717 -0.00003073
   0.66250563  0.66992100  0.00002388
   0.33564531  0.66037646  0.00001864
   0.32310838  0.33653391  0.00017846
   0.66646843 -0.00318297 -0.00035712
   0.00098350  0.00550764  0.00015768
   1.00825698  0.32871611 -0.00002185
   0.00300631  0.67333202 -0.00004786
   0.11016413  0.22066669  0.94579335
   0.22472211  0.10808358  0.05129628
   0.10984654  0.55482080  0.94805402
   0.22054708  0.44407115  0.05429494
   0.11791155  0.89358543  0.94848826
   0.22553606  0.78422154  0.05091254
   0.44715635  0.22049321  0.95057566
   0.55188063  0.11313043  0.05028890
   0.45151156  0.55823693  0.94779930
   0.56046211  0.44706513  0.04912821
   0.44030796  0.89137912  0.94912004
   0.55856923  0.77388261  0.05207271
   0.77601211  0.22552584  0.94898024
   0.88934071  0.11086530  0.05312136
   0.77200913  0.55275824  0.95073756
   0.88463025  0.44208362  0.05001973
   0.77580541  0.88220942  0.94820473
   0.88220852  0.77499442  0.05110018
unknown system                          
           1
     8.285564    4.768583    0.000000
    -8.279257    4.757644    0.000000
     0.000000    0.000000   30.000000
   V    Mo   W    S 
   3   3   3  18
Direct configuration=    11
   0.66453977  0.32694988 -0.00005424
   0.33575826 -0.00053479 -0.00011017
   0.66025121  0.66987410  0.00006632
   0.33539266  0.65884556  0.00001145
   0.31999076  0.33736486  0.00019824
   0.66627044 -0.00382728 -0.00034577
   0.00132921  0.00847890  0.00019052
   1.01076323  0.32792704  0.00007021
   0.00417714  0.67382340  0.00003010
   0.11002306  0.22080170  0.94487006
   0.22471384  0.10897732  0.05124413
   0.10975778  0.55429698  0.94792083
   0.22051169  0.44457287  0.05509246
   0.11764208  0.89395637  0.94854074
   0.22621029  0.78414260  0.05123734
   0.44662487  0.22095509  0.95078875
   0.55219040  0.11274353  0.05049174
   0.45103644  0.55784466  0.94735456
   0.55925491  0.44642167  0.04892541
   0.44073607  0.89076649  0.94894648
   0.55833689  0.77388836  0.05242638
   0.77696021  0.22541024  0.94913774
   0.88895320  0.11119494  0.05347875
   0.77237007  0.55318309  0.95097863
   0.88547677  0.44176096  0.04984654
   0.77602519  0.88255818  0.94798528
   0.88291800  0.77583773  0.05067742
unknown system                          
           1
     8.291177    4.770459    0.000000
    -8.284714    4.759251    0.000000
     0.000000    0.000000   30.000000
   V    Mo   W    S 
   3   3   3  18
Direct configuration=    12
   0.66388228  0.32524075 -0.00012363
   0.33749163 -0.00239974 -0.00013874
   0.65783741  0.66978924  0.00002761
   0.33507769  0.65735319  0.00011962
   0.31688764  0.33830716  0.00007158
   0.66583992 -0.00440573 -0.00032328
   0.00179347  0.01184756  0.00005893
   1.01335282  0.32676474  0.00020548
   0.00562174  0.67543834  0.00007942
   0.10993937  0.22085742  0.94410884
   0.22494911  0.10987356  0.05102671
   0.10958366  0.55372234  0.94800386
   0.22030085  0.44509457  0.05581478
   0.11788242  0.89461506  0.94864686
   0.22699236  0.78417679  0.05137586
   0.44587559  0.22131596  0.95112372
   0.55233099  0.11231171  0.05067087
   0.45053486  0.55740980  0.94698598
   0.55797703  0.44584120  0.04860132
   0.44086820  0.88988613  0.94880282
   0.55808894  0.77375438  0.05269341
   0.77807346  0.22533378  0.94928348
   0.88869666  0.11145825  0.05380177
   0.77257780  0.55360649  0.95129323
   0.88639226  0.44157462  0.04950925
   0.77616070  0.88275899  0.94789804
   0.88320557  0.77668790  0.05038208
unknown system                          
           1
     8.300402    4.772588    0.000000
    -8.293732    4.761026    0.000000
     0.000000    0.000000   30.000000
   V    Mo   W    S 
   3   3   3  18
Direct configuration=    13
   0.66364871  0.32486124 -0.00016065
   0.33817111 -0.00302758 -0.00014270
   0.65708644  0.66955209  0.00001728
   0.33500692  0.65741918  0.00014838
   0.31664963  0.33859086  0.00006085
   0.66556258 -0.00458374 -0.00031566
   0.00175244  0.01264139  0.00007601
   1.01370582  0.32664647  0.00025843
   0.00605594  0.67560673  0.00009221
   0.10996559  0.22093985  0.94394886
   0.22502923  0.11002433  0.05088143
   0.10954657  0.55359811  0.94801909
   0.22027855  0.44519979  0.05592155
   0.11803756  0.89479337  0.94872187
   0.22714025  0.78419072  0.05144192
   0.44568338  0.22130233  0.95123078
   0.55234224  0.11222386  0.05071864
   0.45039220  0.55738869  0.94691964
   0.55774952  0.44575492  0.04851967
   0.44086808  0.88968131  0.94873649
   0.55803107  0.77368122  0.05274085
   0.77828921  0.22534995  0.94935050
   0.88864330  0.11151043  0.05383826
   0.77262669  0.55369012  0.95140752
   0.88652748  0.44154891  0.04942710
   0.77616769  0.88276468  0.94790488
   0.88325621  0.77686519  0.05023669
unknown system                          
           1
     8.293654    4.771852    0.000000
    -8.286972    4.760264    0.000000
     0.000000    0.000000   30.000000
   V    Mo   W    S 
   3   3   3  18
Direct configuration=    14
   0.66311160  0.32371592 -0.00024970
   0.33992015 -0.00458619 -0.00014563
   0.65531736  0.66896845 -0.00002539
   0.33495033  0.65759169  0.00022038
   0.31608607  0.33944950  0.00000647
   0.66490993 -0.00480250 -0.00029530
   0.00160542  0.01423664  0.00005382
   1.01442874  0.32609737  0.00034685
   0.00706136  0.67652340  0.00008537
   0.11002065  0.22114990  0.94368097
   0.22523917  0.11033521  0.05050003
   0.10934571  0.55329828  0.94814509
   0.22020617  0.44541777  0.05612513
   0.11850049  0.89530064  0.94889253
   0.22743980  0.78423277  0.05159351
   0.44525917  0.22123322  0.95150933
   0.55239277  0.11196682  0.05084945
   0.45003465  0.55737152  0.94677977
   0.55726467  0.44555195  0.04830708
   0.44090784  0.88919622  0.94856760
   0.55791003  0.77353057  0.05283200
   0.77876610  0.22535055  0.94950329
   0.88844640  0.11155934  0.05392299
   0.77272199  0.55385384  0.95170780
   0.88686934  0.44158130  0.04919506
   0.77620138  0.88281627  0.94795228
   0.88329717  0.77727398  0.04993909
unknown system                          
           1
     8.287175    4.770303    0.000000
    -8.280250    4.758287    0.000000
     0.000000    0.000000   30.000000
   V    Mo   W    S 
   3   3   3  18
Direct configuration=    15
   0.66368592  0.32480245 -0.00015895
   0.33817044 -0.00295221 -0.00016105
   0.65717202  0.66964032  0.00001900
   0.33502992  0.65729211  0.00014325
   0.31656037  0.33849624  0.00007202
   0.66557570 -0.00456939 -0.00032463
   0.00181835  0.01268615  0.00009657
   1.01374494  0.32656888  0.00026203
   0.00590065  0.67575642  0.00009770
   0.10993368  0.22090140  0.94387698
   0.22501260  0.11011756  0.05088908
   0.10954373  0.55356026  0.94804813
   0.22024984  0.44519099  0.05597538
   0.11805784  0.89483292  0.94870424
   0.22720488  0.78420063  0.05141725
   0.44566218  0.22137999  0.95125396
   0.55230543  0.11219815  0.05071091
   0.45037525  0.55731893  0.94691437
   0.55763090  0.44570261  0.04847101
   0.44078995  0.88958785  0.94877662
   0.55801717  0.77364752  0.05275193
   0.77838859  0.22537946  0.94936512
   0.88870074  0.11150932  0.05384658
   0.77263414  0.55371404  0.95141882
   0.88660342  0.44153417  0.04939355
   0.77617586  0.88277072  0.94789388
   0.88326994  0.77694697  0.05024612
unknown system                          
           1
     8.297699    4.773762    0.000000
    -8.290365    4.761043    0.000000
     0.000000    0.000000   30.000000
   V    Mo   W    S 
   3   3   3  18
Direct configuration=    16
   0.66432691  0.32568986 -0.00004822
   0.33644296 -0.00109586 -0.00019292
   0.65917100  0.67056201  0.00004255
   0.33523674  0.65659033  0.00010176
   0.31650453  0.33737115  0.00010769
   0.66621889 -0.00438158 -0.00034734
   0.00225109  0.01137836  0.00006943
   1.01340707  0.32681415  0.00016091
   0.00440956  0.67537077  0.00011089
   0.10976876  0.22058254  0.94405173
   0.22475161  0.11002943  0.05130340
   0.10970030  0.55373274  0.94806345
   0.22022543  0.44491821  0.05586356
   0.11760002  0.89441933  0.94852192
   0.22705254  0.78418769  0.05113450
   0.44606145  0.22169502  0.95105465
   0.55217458  0.11240348  0.05052412
   0.45067995  0.55709320  0.94708210
   0.55778559  0.44572037  0.04851798
   0.44054254  0.88978572  0.94906598
   0.55809953  0.77371736  0.05266026
   0.77820938  0.22545898  0.94927452
   0.88900292  0.11147643  0.05377645
   0.77258872  0.55362091  0.95116249
   0.88652170  0.44147234  0.04949369
   0.77619698  0.88279004  0.94785574
   0.88328370  0.77681147  0.05058860
unknown system                          
           1
     8.299717    4.773271    0.000000
    -8.292215    4.760265    0.000000
     0.000000    0.000000   30.000000
   V    Mo   W    S 
   3   3   3  18
Direct configuration=    17
   0.66398315  0.32468492 -0.00009407
   0.33767387 -0.00202240 -0.00018388
   0.65793350  0.67023427  0.00000998
   0.33535118  0.65655074  0.00016060
   0.31596864  0.33794465  0.00007008
   0.66575580 -0.00455046 -0.00033142
   0.00214755  0.01243422  0.00006885
   1.01397192  0.32632888  0.00026093
   0.00495632  0.67636538  0.00012027
   0.10982275  0.22072399  0.94380163
   0.22490796  0.11020660  0.05103653
   0.10950294  0.55353250  0.94820790
   0.22015115  0.44505505  0.05602075
   0.11800106  0.89484112  0.94860764
   0.22725312  0.78422928  0.05120950
   0.44576372  0.22164191  0.95124572
   0.55222618  0.11219597  0.05063756
   0.45044985  0.55706090  0.94696805
   0.55745229  0.44557622  0.04833283
   0.44056775  0.88938633  0.94895164
   0.55804851  0.77361790  0.05274059
   0.77854644  0.22543852  0.94936795
   0.88882850  0.11147934  0.05384246
   0.77262952  0.55373789  0.95136772
   0.88681950  0.44153789  0.04929674
   0.77622407  0.88284099  0.94787780
   0.88327723  0.77714185  0.05040553
unknown system                          
           1
     8.298183    4.772270    0.000000
    -8.290639    4.759191    0.000000
     0.000000    0.000000   30.000000
   V    Mo   W    S 
   3   3   3  18
Direct configuration=    18
   0.66376727  0.32399216 -0.00012042
   0.33851134 -0.00265858 -0.00017962
   0.65717165  0.67003263 -0.00001970
   0.33549065  0.65653154  0.00019578
   0.31562184  0.33836840  0.00003176
   0.66540359 -0.00463648 -0.00032471
   0.00210323  0.01305610  0.00003774
   1.01432227  0.32591640  0.00029518
   0.00522649  0.67714246  0.00011300
   0.10984150  0.22081293  0.94370773
   0.22499900  0.11031574  0.05086220
   0.10936942  0.55342749  0.94833938
   0.22011209  0.44513174  0.05609831
   0.11824294  0.89511142  0.94866805
   0.22733574  0.78423687  0.05123838
   0.44561811  0.22161232  0.95136920
   0.55227812  0.11206367  0.05070860
   0.45030795  0.55705425  0.94691185
   0.55727377  0.44548088  0.04821208
   0.44059714  0.88915134  0.94888948
   0.55801219  0.77356333  0.05277577
   0.77873405  0.22540262  0.94942743
   0.88871307  0.11145521  0.05387521
   0.77265841  0.55380339  0.95150252
   0.88701580  0.44161852  0.04916259
   0.77623957  0.88288942  0.94791017
   0.88324726  0.77733867  0.05031191
unknown system                          
           1
     8.307483    4.775440    0.000000
    -8.299861    4.762231    0.000000
     0.000000    0.000000   30.000000
   V    Mo   W    S 
   3   3   3  18
Direct configuration=    19
   0.66372366  0.32390807 -0.00012786
   0.33863029 -0.00276367 -0.00018082
   0.65703314  0.66999588 -0.00002461
   0.33547837  0.65652389  0.00019901
   0.31554097  0.33843042  0.00002346
   0.66535984 -0.00466256 -0.00032566
   0.00210123  0.01319719  0.00002690
   1.01441160  0.32587264  0.00029363
   0.00531972  0.67720596  0.00011080
   0.10983807  0.22082881  0.94370465
   0.22500597  0.11032953  0.05083388
   0.10935912  0.55341086  0.94835393
   0.22011160  0.44514524  0.05610714
   0.11826277  0.89513451  0.94869071
   0.22735070  0.78423823  0.05124287
   0.44558964  0.22160613  0.95139109
   0.55228604  0.11204535  0.05071276
   0.45028033  0.55705428  0.94691073
   0.55724288  0.44546974  0.04819388
   0.44060642  0.88912007  0.94888620
   0.55800556  0.77355585  0.05277605
   0.77876257  0.22539642  0.94944475
   0.88869686  0.11145819  0.05387765
   0.77267241  0.55382224  0.95152850
   0.88703997  0.44162501  0.04914508
   0.77624696  0.88289882  0.94792181
   0.88325778  0.77736734  0.05028336
unknown system                          
           1
     8.312880    4.775947    0.000000
    -8.305460    4.763096    0.000000
     0.000000    0.000000   30.000000
   V    Mo   W    S 
   3   3   3  18
Direct configuration=    20
   0.66359128  0.32317315 -0.00014590
   0.33955632 -0.00339651 -0.00017093
   0.65628346  0.66977439 -0.00005196
   0.33576936  0.65651876  0.00023559
   0.31532557  0.33897655 -0.00001044
   0.66502771 -0.00468405 -0.00031714
   0.00197031  0.01366507  0.00001331
   1.01462271  0.32534866  0.00034031
   0.00535927  0.67813010  0.00009802
   0.10988173  0.22093467  0.94361463
   0.22510848  0.11046303  0.05063549
   0.10917909  0.55330429  0.94852809
   0.22004770  0.44522023  0.05616865
   0.11854230  0.89545539  0.94871949
   0.22738296  0.78419449  0.05128106
   0.44548838  0.22159306  0.95151624
   0.55238964  0.11190934  0.05081359
   0.45014022  0.55707367  0.94683956
   0.55709676  0.44537063  0.04806608
   0.44066711  0.88886021  0.94878822
   0.55796771  0.77349386  0.05281142
   0.77893314  0.22534056  0.94949312
   0.88855869  0.11140933  0.05390564
   0.77267063  0.55385085  0.95166159
   0.88724858  0.44173491  0.04899053
   0.77623684  0.88295017  0.94795265
   0.88316850  0.77754967  0.05022297
unknown system                          
           1
     8.314808    4.775988    0.000000
    -8.307448    4.763244    0.000000
     0.000000    0.000000   30.000000
   V    Mo   W    S 
   3   3   3  18
Direct configuration=    21
   0.66330191  0.32234555 -0.00017058
   0.34059364 -0.00430499 -0.00014860
   0.65538510  0.66946381 -0.00007928
   0.33597389  0.65673602  0.00028503
   0.31521421  0.33952786 -0.00004340
   0.66453989 -0.00475399 -0.00029542
   0.00184313  0.01420980  0.00001085
   1.01478451  0.32491023  0.00041668
   0.00571315  0.67907834  0.00009335
   0.10996398  0.22104837  0.94346972
   0.22527690  0.11055794  0.05042391
   0.10900194  0.55319555  0.94864615
   0.21999753  0.44532866  0.05625779
   0.11890122  0.89582100  0.94875676
   0.22746377  0.78422104  0.05134171
   0.44530542  0.22148773  0.95164419
   0.55242727  0.11175769  0.05091639
   0.45001180  0.55711091  0.94673393
   0.55695128  0.44529182  0.04796932
   0.44070979  0.88865680  0.94866929
   0.55792976  0.77344261  0.05287493
   0.77911466  0.22530972  0.94951291
   0.88840951  0.11136739  0.05395970
   0.77266112  0.55388434  0.95179077
   0.88744388  0.44184352  0.04885843
   0.77622501  0.88295726  0.94795729
   0.88307018  0.77771945  0.05014807
unknown system                          
           1
     8.309572    4.772614    0.000000
    -8.302412    4.760219    0.000000
     0.000000    0.000000   30.000000
   V    Mo   W    S 
   3   3   3  18
Direct configuration=    22
   0.66325610  0.32204368 -0.00017569
   0.34097640 -0.00458350 -0.00014218
   0.65507593  0.66937452 -0.00009000
   0.33612415  0.65675992  0.00029815
   0.31515984  0.33977132 -0.00005983
   0.66440836 -0.00476740 -0.00029339
   0.00176947  0.01437444  0.00000494
   1.01483925  0.32468266  0.00043507
   0.00570766  0.67948062  0.00008526
   0.10998871  0.22109403  0.94344605
   0.22532199  0.11060451  0.05033456
   0.10892109  0.55315717  0.94872796
   0.21996717  0.44535968  0.05627231
   0.11901649  0.89594892  0.94877297
   0.22745721  0.78419385  0.05134859
   0.44526589  0.22147269  0.95169946
   0.55247325  0.11170010  0.05095335
   0.44996236  0.55712918  0.94670833
   0.55690681  0.44526419  0.04791764
   0.44074494  0.88856481  0.94863251
   0.55791775  0.77342100  0.05288414
   0.77917519  0.22528136  0.94953092
   0.88835062  0.11134164  0.05396860
   0.77265699  0.55389335  0.95184538
   0.88753187  0.44190076  0.04879341
   0.77621723  0.88297197  0.94797475
   0.88302173  0.77777899  0.05012665
unknown system                          
           1
     8.319979    4.776398    0.000000
    -8.312618    4.763660    0.000000
     0.000000    0.000000   30.000000
   V    Mo   W    S 
   3   3   3  18
Direct configuration=    23
   0.66309782  0.32181103 -0.00020943
   0.34131405 -0.00525589 -0.00013987
   0.65459556  0.66928321 -0.00011148
   0.33616880  0.65696275  0.00030530
   0.31508532  0.34005480 -0.00008180
   0.66420830 -0.00496237 -0.00028994
   0.00168053  0.01468533 -0.00000607
   1.01496462  0.32447268  0.00044593
   0.00610399  0.67991340  0.00006775
   0.11001189  0.22117188  0.94341658
   0.22540061  0.11062395  0.05023041
   0.10883409  0.55311485  0.94876567
   0.21995672  0.44540653  0.05630747
   0.11918889  0.89610645  0.94880687
   0.22749872  0.78421007  0.05142269
   0.44507289  0.22135666  0.95173764
   0.55245088  0.11156699  0.05102883
   0.44988188  0.55716570  0.94667281
   0.55683026  0.44527524  0.04790718
   0.44077843  0.88849394  0.94855442
   0.55790681  0.77340953  0.05292116
   0.77928437  0.22523198  0.94953636
   0.88827798  0.11132144  0.05398799
   0.77271896  0.55398091  0.95191494
   0.88767333  0.44200310  0.04875695
   0.77621385  0.88298160  0.94798690
   0.88301491  0.77782870  0.05006464
unknown system                          
           1
     8.328717    4.777287    0.000000
    -8.321399    4.764634    0.000000
     0.000000    0.000000   30.000000
   V    Mo   W    S 
   3   3   3  18
Direct configuration=    24
   0.66298364  0.32093360 -0.00020842
   0.34226086 -0.00556478 -0.00012284
   0.65404012  0.66892468 -0.00013679
   0.33644607  0.65689109  0.00033581
   0.31499580  0.34051379 -0.00011992
   0.66387887 -0.00467971 -0.00029201
   0.00163185  0.01498268 -0.00002530
   1.01504943  0.32403070  0.00047925
   0.00586605  0.68079384  0.00004680
   0.11007205  0.22126615  0.94338227
   0.22553098  0.11071590  0.05004833
   0.10866784  0.55303505  0.94896307
   0.21990494  0.44547931  0.05632267
   0.11945787  0.89639521  0.94882678
   0.22749755  0.78417512  0.05138839
   0.44512149  0.22135002  0.95188801
   0.55258412  0.11151856  0.05108486
   0.44978160  0.55720248  0.94661580
   0.55677713  0.44515087  0.04778376
   0.44084056  0.88831868  0.94850259