   27   27  100    1
  0.9710400E+02  0.1002848E-08  0.1002848E-08  0.3000000E-08  0.5000000E-15
  1.000000000000000E-004
  CAR 
 unknown system                          
    159     34    120
 
  0.0000000E+00  0.0000000E+00  0.0000000E+00  0.1562500E-01
    1      -17.856392   1.000000
    2      -16.781630   1.000000
    3      -16.682077   1.000000
    4      -16.613312   1.000000
    5      -16.540517   1.000000
    6      -16.494933   1.000000
    7      -16.364830   1.000000
    8      -16.339755   1.000000
    9      -16.221883   1.000000
   10      -16.112078   1.000000
   11      -16.069672   1.000000
   12      -15.993419   1.000000
   13      -15.880579   1.000000
   14      -15.631723   1.000000
   15      -15.599099   1.000000
   16      -15.452034   1.000000
   17      -15.220674   1.000000
   18      -15.194525   1.000000
   19       -9.478958   1.000000
   20       -9.041599   1.000000
   21       -9.000127   1.000000
   22       -8.824735   1.000000
   23       -8.770665   1.000000
   24       -8.721603   1.000000
   25       -8.670913   1.000000
   26       -8.609423   1.000000
   27       -8.514435   1.000000
   28       -8.480325   1.000000
   29       -8.440637   1.000000
   30       -8.362122   1.000000
   31       -8.234178   1.000000
   32       -8.207504   1.000000
   33       -8.151488   1.000000
   34       -8.011426   1.000000
   35       -7.791624   1.000000
   36       -7.778673   1.000000
   37       -7.640782   1.000000
   38       -7.561560   1.000000
   39       -7.520681   1.000000
   40       -7.371152   1.000000
   41       -7.317352   1.000000
   42       -7.216970   1.000000
   43       -7.080107   1.000000
   44       -6.893473   1.000000
   45       -6.845206   1.000000
   46       -6.833807   1.000000
   47       -6.764721   1.000000
   48       -6.720036   1.000000
   49       -6.658955   1.000000
   50       -6.516173   1.000000
   51       -6.397698   1.000000
   52       -6.255610   1.000000
   53       -6.217038   1.000000
   54       -6.193185   1.000000
   55       -6.107519   1.000000
   56       -6.035408   1.000000
   57       -5.968307   1.000000
   58       -5.911242   1.000000
   59       -5.848540   1.000000
   60       -5.705740   1.000000
   61       -5.608969   1.000000
   62       -5.352903   1.000000
   63       -5.312763   1.000000
   64       -5.055332   1.000000
   65       -4.981187   1.000000
   66       -4.894458   1.000000
   67       -4.863987   1.000000
   68       -4.825034   1.000000
   69       -4.728769   1.000000
   70       -4.694781   1.000000
   71       -4.652280   1.000000
   72       -4.613870   1.000000
   73       -4.404195   1.000000
   74       -4.387797   1.000000
   75       -4.285668   1.000000
   76       -3.998362   1.000000
   77       -3.729571   0.999662
   78       -3.575968   0.989641
   79       -3.487256   0.954081
   80       -3.205981   0.380892
   81       -3.186421   0.329444
   82       -2.860355   0.003006
   83       -2.678726   0.000028
   84       -2.643828   0.000009
   85       -2.579312   0.000001
   86       -2.467214   0.000000
   87       -2.251445   0.000000
   88       -2.199428   0.000000
   89       -2.186221   0.000000
   90       -2.049778   0.000000
   91       -1.704995   0.000000
   92       -1.601743   0.000000
   93       -1.396570   0.000000
   94       -1.286412   0.000000
   95       -1.136688   0.000000
   96       -1.052849   0.000000
   97       -1.003216   0.000000
   98       -0.881772   0.000000
   99       -0.751519   0.000000
  100       -0.634564   0.000000
  101       -0.576401   0.000000
  102       -0.507329   0.000000
  103       -0.382666   0.000000
  104       -0.263635   0.000000
  105       -0.103284   0.000000
  106       -0.074421   0.000000
  107       -0.018388   0.000000
  108        0.022180   0.000000
  109        0.188484   0.000000
  110        0.330588   0.000000
  111        0.399518   0.000000
  112        0.480420   0.000000
  113        0.517618   0.000000
  114        0.642705   0.000000
  115        0.971991   0.000000
  116        1.101861   0.000000
  117        1.305334   0.000000
  118        1.646710   0.000000
  119        1.841809   0.000000
  120        2.170973   0.000000
 
  0.1250000E+00  0.2775558E-16  0.0000000E+00  0.3125000E-01
    1      -17.832698   1.000000
    2      -16.818602   1.000000
    3      -16.750209   1.000000
    4      -16.650326   1.000000
    5      -16.554555   1.000000
    6      -16.454329   1.000000
    7      -16.368085   1.000000
    8      -16.310746   1.000000
    9      -16.235428   1.000000
   10      -16.089336   1.000000
   11      -15.990504   1.000000
   12      -15.980571   1.000000
   13      -15.873110   1.000000
   14      -15.640190   1.000000
   15      -15.600136   1.000000
   16      -15.469469   1.000000
   17      -15.222101   1.000000
   18      -15.197651   1.000000
   19       -9.470091   1.000000
   20       -9.200992   1.000000
   21       -9.078751   1.000000
   22       -8.914982   1.000000
   23       -8.844690   1.000000
   24       -8.728019   1.000000
   25       -8.691500   1.000000
   26       -8.578957   1.000000
   27       -8.496145   1.000000
   28       -8.481189   1.000000
   29       -8.378584   1.000000
   30       -8.254348   1.000000
   31       -8.181416   1.000000
   32       -8.084290   1.000000
   33       -8.049075   1.000000
   34       -8.010712   1.000000
   35       -7.760362   1.000000
   36       -7.716440   1.000000
   37       -7.652604   1.000000
   38       -7.565135   1.000000
   39       -7.483129   1.000000
   40       -7.465163   1.000000
   41       -7.271917   1.000000
   42       -7.227814   1.000000
   43       -7.115812   1.000000
   44       -7.003590   1.000000
   45       -6.893477   1.000000
   46       -6.789879   1.000000
   47       -6.741227   1.000000
   48       -6.659643   1.000000
   49       -6.590332   1.000000
   50       -6.457197   1.000000
   51       -6.408003   1.000000
   52       -6.320724   1.000000
   53       -6.234000   1.000000
   54       -6.148030   1.000000
   55       -6.116282   1.000000
   56       -6.066952   1.000000
   57       -6.022028   1.000000
   58       -5.929698   1.000000
   59       -5.775322   1.000000
   60       -5.651303   1.000000
   61       -5.584375   1.000000
   62       -5.473742   1.000000
   63       -5.379869   1.000000
   64       -5.137606   1.000000
   65       -5.053737   1.000000
   66       -4.931144   1.000000
   67       -4.842078   1.000000
   68       -4.820412   1.000000
   69       -4.739035   1.000000
   70       -4.649275   1.000000
   71       -4.603555   1.000000
   72       -4.563211   1.000000
   73       -4.425381   1.000000
   74       -4.286653   1.000000
   75       -4.253245   1.000000
   76       -4.052218   1.000000
   77       -3.755065   0.999828
   78       -3.651920   0.997815
   79       -3.554539   0.984673
   80       -3.168323   0.284535
   81       -3.135640   0.211705
   82       -2.820089   0.001215
   83       -2.652768   0.000012
   84       -2.609676   0.000003
   85       -2.586276   0.000001
   86       -2.461633   0.000000
   87       -2.229674   0.000000
   88       -2.172319   0.000000
   89       -2.138267   0.000000
   90       -2.053060   0.000000
   91       -1.711120   0.000000
   92       -1.596942   0.000000
   93       -1.391619   0.000000
   94       -1.293976   0.000000
   95       -1.147171   0.000000
   96       -1.071766   0.000000
   97       -0.992012   0.000000
   98       -0.881650   0.000000
   99       -0.770718   0.000000
  100       -0.717178   0.000000
  101       -0.670062   0.000000
  102       -0.532889   0.000000
  103       -0.485407   0.000000
  104       -0.321479   0.000000
  105       -0.144639   0.000000
  106       -0.070718   0.000000
  107       -0.012573   0.000000
  108        0.040269   0.000000
  109        0.173189   0.000000
  110        0.295715   0.000000
  111        0.395086   0.000000
  112        0.499240   0.000000
  113        0.634979   0.000000
  114        0.716405   0.000000
  115        0.952256   0.000000
  116        1.096407   0.000000
  117        1.261149   0.000000
  118        1.688947   0.000000
  119        1.883003   0.000000
  120        2.205602   0.000000
 
  0.2500000E+00  0.5551115E-16  0.0000000E+00  0.3125000E-01
    1      -17.764072   1.000000
    2      -17.005100   1.000000
    3      -16.761294   1.000000
    4      -16.691242   1.000000
    5      -16.600630   1.000000
    6      -16.437803   1.000000
    7      -16.352036   1.000000
    8      -16.275019   1.000000
    9      -16.217779   1.000000
   10      -16.026714   1.000000
   11      -15.963884   1.000000
   12      -15.895001   1.000000
   13      -15.808436   1.000000
   14      -15.664094   1.000000
   15      -15.600341   1.000000
   16      -15.514805   1.000000
   17      -15.226967   1.000000
   18      -15.205821   1.000000
   19       -9.553919   1.000000
   20       -9.370288   1.000000
   21       -9.189812   1.000000
   22       -9.033568   1.000000
   23       -8.991236   1.000000
   24       -8.783470   1.000000
   25       -8.615925   1.000000
   26       -8.550906   1.000000
   27       -8.493011   1.000000
   28       -8.390467   1.000000
   29       -8.303492   1.000000
   30       -8.218527   1.000000
   31       -8.113939   1.000000
   32       -8.052374   1.000000
   33       -7.873489   1.000000
   34       -7.802410   1.000000
   35       -7.767486   1.000000
   36       -7.682470   1.000000
   37       -7.623218   1.000000
   38       -7.584967   1.000000
   39       -7.487222   1.000000
   40       -7.355059   1.000000
   41       -7.262892   1.000000
   42       -7.194774   1.000000
   43       -7.138041   1.000000
   44       -7.061756   1.000000
   45       -6.902382   1.000000
   46       -6.778113   1.000000
   47       -6.731606   1.000000
   48       -6.640121   1.000000
   49       -6.478594   1.000000
   50       -6.395412   1.000000
   51       -6.368735   1.000000
   52       -6.325868   1.000000
   53       -6.269817   1.000000
   54       -6.210338   1.000000
   55       -6.158501   1.000000
   56       -6.063879   1.000000
   57       -6.040535   1.000000
   58       -5.879433   1.000000
   59       -5.749791   1.000000
   60       -5.708224   1.000000
   61       -5.657599   1.000000
   62       -5.504498   1.000000
   63       -5.451998   1.000000
   64       -5.355012   1.000000
   65       -5.270912   1.000000
   66       -4.972094   1.000000
   67       -4.856132   1.000000
   68       -4.747109   1.000000
   69       -4.704952   1.000000
   70       -4.620465   1.000000
   71       -4.499592   1.000000
   72       -4.468191   1.000000
   73       -4.368903   1.000000
   74       -4.282385   1.000000
   75       -4.209399   1.000000
   76       -4.147792   1.000000
   77       -3.837697   0.999984
   78       -3.750952   0.999808
   79       -3.592865   0.992503
   80       -3.116145   0.174026
   81       -3.062805   0.094163
   82       -2.747239   0.000195
   83       -2.620449   0.000004
   84       -2.581392   0.000001
   85       -2.528892   0.000000
   86       -2.436677   0.000000
   87       -2.170578   0.000000
   88       -2.105527   0.000000
   89       -2.049254   0.000000
   90       -2.005894   0.000000
   91       -1.703207   0.000000
   92       -1.588473   0.000000
   93       -1.413648   0.000000
   94       -1.312617   0.000000
   95       -1.205828   0.000000
   96       -1.128498   0.000000
   97       -0.991762   0.000000
   98       -0.915111   0.000000
   99       -0.891378   0.000000
  100       -0.819165   0.000000
  101       -0.783293   0.000000
  102       -0.670836   0.000000
  103       -0.534934   0.000000
  104       -0.446055   0.000000
  105       -0.250843   0.000000
  106       -0.162379   0.000000
  107       -0.036021   0.000000
  108        0.072967   0.000000
  109        0.149944   0.000000
  110        0.284701   0.000000
  111        0.391035   0.000000
  112        0.539013   0.000000
  113        0.749383   0.000000
  114        0.832434   0.000000
  115        0.946798   0.000000
  116        1.117254   0.000000
  117        1.213197   0.000000
  118        1.806840   0.000000
  119        2.000356   0.000000
  120        2.307942   0.000000
 
  0.3750000E+00  0.0000000E+00  0.0000000E+00  0.3125000E-01
    1      -17.662560   1.000000
    2      -17.199804   1.000000
    3      -16.762461   1.000000
    4      -16.719901   1.000000
    5      -16.633298   1.000000
    6      -16.446022   1.000000
    7      -16.338023   1.000000
    8      -16.284853   1.000000
    9      -16.135688   1.000000
   10      -16.000594   1.000000
   11      -15.909629   1.000000
   12      -15.871978   1.000000
   13      -15.735403   1.000000
   14      -15.658143   1.000000
   15      -15.620785   1.000000
   16      -15.555402   1.000000
   17      -15.234397   1.000000
   18      -15.214527   1.000000
   19       -9.744059   1.000000
   20       -9.351896   1.000000
   21       -9.294828   1.000000
   22       -9.134123   1.000000
   23       -9.048850   1.000000
   24       -8.826464   1.000000
   25       -8.531997   1.000000
   26       -8.482547   1.000000
   27       -8.450494   1.000000
   28       -8.300319   1.000000
   29       -8.290947   1.000000
   30       -8.232272   1.000000
   31       -8.145558   1.000000
   32       -8.061067   1.000000
   33       -7.886043   1.000000
   34       -7.835698   1.000000
   35       -7.767697   1.000000
   36       -7.713873   1.000000
   37       -7.539440   1.000000
   38       -7.411178   1.000000
   39       -7.387478   1.000000
   40       -7.294937   1.000000
   41       -7.220954   1.000000
   42       -7.163718   1.000000
   43       -7.064922   1.000000
   44       -7.029085   1.000000
   45       -6.801369   1.000000
   46       -6.758687   1.000000
   47       -6.697752   1.000000
   48       -6.572825   1.000000
   49       -6.505244   1.000000
   50       -6.421745   1.000000
   51       -6.382922   1.000000
   52       -6.338702   1.000000
   53       -6.284731   1.000000
   54       -6.206124   1.000000
   55       -6.130958   1.000000
   56       -6.054176   1.000000
   57       -6.028522   1.000000
   58       -5.872806   1.000000
   59       -5.846604   1.000000
   60       -5.772818   1.000000
   61       -5.682771   1.000000
   62       -5.633176   1.000000
   63       -5.575762   1.000000
   64       -5.425962   1.000000
   65       -5.313945   1.000000
   66       -5.022893   1.000000
   67       -4.859962   1.000000
   68       -4.785946   1.000000
   69       -4.685572   1.000000
   70       -4.661597   1.000000
   71       -4.563791   1.000000
   72       -4.427587   1.000000
   73       -4.353564   1.000000
   74       -4.270786   1.000000
   75       -4.119977   1.000000
   76       -4.083017   1.000000
   77       -3.967021   1.000000
   78       -3.741466   0.999752
   79       -3.577105   0.989860
   80       -3.088539   0.128486
   81       -3.010643   0.046054
   82       -2.697370   0.000048
   83       -2.635293   0.000007
   84       -2.568287   0.000001
   85       -2.446290   0.000000
   86       -2.373646   0.000000
   87       -2.101949   0.000000
   88       -2.047718   0.000000
   89       -1.952912   0.000000
   90       -1.895540   0.000000
   91       -1.651591   0.000000
   92       -1.580940   0.000000
   93       -1.515785   0.000000
   94       -1.356368   0.000000
   95       -1.330642   0.000000
   96       -1.199375   0.000000
   97       -1.034151   0.000000
   98       -1.001368   0.000000
   99       -0.948520   0.000000
  100       -0.884939   0.000000
  101       -0.833663   0.000000
  102       -0.760579   0.000000
  103       -0.618632   0.000000
  104       -0.467275   0.000000
  105       -0.306012   0.000000
  106       -0.228717   0.000000
  107       -0.145935   0.000000
  108        0.042973   0.000000
  109        0.127098   0.000000
  110        0.219819   0.000000
  111        0.453140   0.000000
  112        0.557911   0.000000
  113        0.766545   0.000000
  114        0.883240   0.000000
  115        0.965220   0.000000
  116        1.150116   0.000000
  117        1.280031   0.000000
  118        1.982870   0.000000
  119        2.179577   0.000000
  120        2.438369   0.000000
 
  0.5000000E+00  0.1110223E-15  0.0000000E+00  0.1562500E-01
    1      -17.591256   1.000000
    2      -17.304301   1.000000
    3      -16.764368   1.000000
    4      -16.729279   1.000000
    5      -16.643492   1.000000
    6      -16.450981   1.000000
    7      -16.332612   1.000000
    8      -16.292116   1.000000
    9      -16.072945   1.000000
   10      -16.030635   1.000000
   11      -15.868722   1.000000
   12      -15.855737   1.000000
   13      -15.734911   1.000000
   14      -15.661329   1.000000
   15      -15.618625   1.000000
   16      -15.563904   1.000000
   17      -15.238529   1.000000
   18      -15.218145   1.000000
   19       -9.816952   1.000000
   20       -9.344930   1.000000
   21       -9.330858   1.000000
   22       -9.171770   1.000000
   23       -9.056796   1.000000
   24       -8.840332   1.000000
   25       -8.509844   1.000000
   26       -8.430617   1.000000
   27       -8.411532   1.000000
   28       -8.337405   1.000000
   29       -8.245391   1.000000
   30       -8.203345   1.000000
   31       -8.171727   1.000000
   32       -8.049836   1.000000
   33       -7.960685   1.000000
   34       -7.892868   1.000000
   35       -7.821969   1.000000
   36       -7.727988   1.000000
   37       -7.447650   1.000000
   38       -7.377583   1.000000
   39       -7.333855   1.000000
   40       -7.248837   1.000000
   41       -7.149235   1.000000
   42       -7.101247   1.000000
   43       -7.055674   1.000000
   44       -7.020792   1.000000
   45       -6.798397   1.000000
   46       -6.713880   1.000000
   47       -6.623281   1.000000
   48       -6.555770   1.000000
   49       -6.537428   1.000000
   50       -6.457942   1.000000
   51       -6.412924   1.000000
   52       -6.311927   1.000000
   53       -6.262850   1.000000
   54       -6.226582   1.000000
   55       -6.153736   1.000000
   56       -6.087647   1.000000
   57       -6.047481   1.000000
   58       -5.885346   1.000000
   59       -5.832668   1.000000
   60       -5.781124   1.000000
   61       -5.738051   1.000000
   62       -5.705893   1.000000
   63       -5.480012   1.000000
   64       -5.405565   1.000000
   65       -5.264537   1.000000
   66       -5.243146   1.000000
   67       -4.926484   1.000000
   68       -4.853739   1.000000
   69       -4.694627   1.000000
   70       -4.648393   1.000000
   71       -4.536843   1.000000
   72       -4.411795   1.000000
   73       -4.303175   1.000000
   74       -4.272642   1.000000
   75       -4.090591   1.000000
   76       -4.046574   1.000000
   77       -4.022067   1.000000
   78       -3.727851   0.999647
   79       -3.560722   0.986282
   80       -3.081877   0.118864
   81       -2.991360   0.034324
   82       -2.678809   0.000028
   83       -2.642904   0.000009
   84       -2.570387   0.000001
   85       -2.423935   0.000000
   86       -2.327845   0.000000
   87       -2.070632   0.000000
   88       -2.010828   0.000000
   89       -1.887230   0.000000
   90       -1.845767   0.000000
   91       -1.632499   0.000000
   92       -1.605239   0.000000
   93       -1.548471   0.000000
   94       -1.439084   0.000000
   95       -1.349078   0.000000
   96       -1.242625   0.000000
   97       -1.047358   0.000000
   98       -1.031744   0.000000
   99       -0.989858   0.000000
  100       -0.910615   0.000000
  101       -0.838955   0.000000
  102       -0.783192   0.000000
  103       -0.660005   0.000000
  104       -0.451515   0.000000
  105       -0.312177   0.000000
  106       -0.255970   0.000000
  107       -0.211070   0.000000
  108        0.020007   0.000000
  109        0.121138   0.000000
  110        0.185481   0.000000
  111        0.475660   0.000000
  112        0.560808   0.000000
  113        0.762923   0.000000
  114        0.904234   0.000000
  115        0.960913   0.000000
  116        1.173242   0.000000
  117        1.324602   0.000000
  118        2.157012   0.000000
  119        2.270609   0.000000
  120        2.400992   0.000000
 
  0.0000000E+00  0.1250000E+00  0.0000000E+00  0.3125000E-01
    1      -17.833051   1.000000
    2      -16.812129   1.000000
    3      -16.753311   1.000000
    4      -16.638754   1.000000
    5      -16.541339   1.000000
    6      -16.472913   1.000000
    7      -16.387159   1.000000
    8      -16.319440   1.000000
    9      -16.239821   1.000000
   10      -16.068437   1.000000
   11      -16.014719   1.000000
   12      -15.977367   1.000000
   13      -15.857415   1.000000
   14      -15.630989   1.000000
   15      -15.594021   1.000000
   16      -15.456574   1.000000
   17      -15.248430   1.000000
   18      -15.191804   1.000000
   19       -9.492770   1.000000
   20       -9.145979   1.000000
   21       -9.088573   1.000000
   22       -8.930438   1.000000
   23       -8.790110   1.000000
   24       -8.726945   1.000000
   25       -8.703197   1.000000
   26       -8.594247   1.000000
   27       -8.543892   1.000000
   28       -8.471324   1.000000
   29       -8.420393   1.000000
   30       -8.274876   1.000000
   31       -8.198092   1.000000
   32       -8.065908   1.000000
   33       -8.032614   1.000000
   34       -7.913148   1.000000
   35       -7.850600   1.000000
   36       -7.753905   1.000000
   37       -7.645856   1.000000
   38       -7.515907   1.000000
   39       -7.447129   1.000000
   40       -7.378226   1.000000
   41       -7.343628   1.000000
   42       -7.212472   1.000000
   43       -7.123941   1.000000
   44       -6.952002   1.000000
   45       -6.898472   1.000000
   46       -6.861640   1.000000
   47       -6.746058   1.000000
   48       -6.707024   1.000000
   49       -6.612290   1.000000
   50       -6.520823   1.000000
   51       -6.398366   1.000000
   52       -6.290442   1.000000
   53       -6.255647   1.000000
   54       -6.156081   1.000000
   55       -6.107920   1.000000
   56       -6.073891   1.000000
   57       -5.953908   1.000000
   58       -5.881022   1.000000
   59       -5.780075   1.000000
   60       -5.633985   1.000000
   61       -5.566065   1.000000
   62       -5.390726   1.000000
   63       -5.325780   1.000000
   64       -5.199810   1.000000
   65       -5.062935   1.000000
   66       -5.025931   1.000000
   67       -4.930153   1.000000
   68       -4.832888   1.000000
   69       -4.743989   1.000000
   70       -4.649968   1.000000
   71       -4.587154   1.000000
   72       -4.498737   1.000000
   73       -4.380582   1.000000
   74       -4.303519   1.000000
   75       -4.265969   1.000000
   76       -3.910142   0.999999
   77       -3.804169   0.999957
   78       -3.654644   0.997944
   79       -3.481441   0.949980
   80       -3.418218   0.884465
   81       -2.997296   0.037640
   82       -2.859934   0.002979
   83       -2.698937   0.000050
   84       -2.622253   0.000005
   85       -2.574292   0.000001
   86       -2.467007   0.000000
   87       -2.223233   0.000000
   88       -2.196971   0.000000
   89       -2.150275   0.000000
   90       -2.033620   0.000000
   91       -1.706361   0.000000
   92       -1.571708   0.000000
   93       -1.411475   0.000000
   94       -1.279833   0.000000
   95       -1.123248   0.000000
   96       -1.061179   0.000000
   97       -1.009564   0.000000
   98       -0.876621   0.000000
   99       -0.770398   0.000000
  100       -0.683090   0.000000
  101       -0.633007   0.000000
  102       -0.550723   0.000000
  103       -0.505008   0.000000
  104       -0.320713   0.000000
  105       -0.183308   0.000000
  106       -0.126759   0.000000
  107       -0.036973   0.000000
  108        0.103756   0.000000
  109        0.183133   0.000000
  110        0.291114   0.000000
  111        0.383314   0.000000
  112        0.477543   0.000000
  113        0.556701   0.000000
  114        0.710634   0.000000
  115        0.993656   0.000000
  116        1.154011   0.000000
  117        1.319130   0.000000
  118        1.691620   0.000000
  119        1.880591   0.000000
  120        2.206258   0.000000
 
  0.1250000E+00  0.1250000E+00  0.0000000E+00  0.3125000E-01
    1      -17.788775   1.000000
    2      -16.877765   1.000000
    3      -16.837279   1.000000
    4      -16.730946   1.000000
    5      -16.481146   1.000000
    6      -16.454157   1.000000
    7      -16.375085   1.000000
    8      -16.315091   1.000000
    9      -16.231639   1.000000
   10      -16.023912   1.000000
   11      -15.997175   1.000000
   12      -15.887083   1.000000
   13      -15.841756   1.000000
   14      -15.650215   1.000000
   15      -15.596859   1.000000
   16      -15.481085   1.000000
   17      -15.256541   1.000000
   18      -15.192440   1.000000
   19       -9.507882   1.000000
   20       -9.351387   1.000000
   21       -9.150999   1.000000
   22       -9.099429   1.000000
   23       -8.855531   1.000000
   24       -8.696107   1.000000
   25       -8.675628   1.000000
   26       -8.542191   1.000000
   27       -8.501508   1.000000
   28       -8.455155   1.000000
   29       -8.326511   1.000000
   30       -8.244622   1.000000
   31       -8.131827   1.000000
   32       -8.041318   1.000000
   33       -7.977449   1.000000
   34       -7.850630   1.000000
   35       -7.755971   1.000000
   36       -7.728436   1.000000
   37       -7.615002   1.000000
   38       -7.510798   1.000000
   39       -7.450543   1.000000
   40       -7.355707   1.000000
   41       -7.283965   1.000000
   42       -7.225185   1.000000
   43       -7.171449   1.000000
   44       -6.995817   1.000000
   45       -6.922565   1.000000
   46       -6.823443   1.000000
   47       -6.783398   1.000000
   48       -6.649145   1.000000
   49       -6.514947   1.000000
   50       -6.449688   1.000000
   51       -6.387800   1.000000
   52       -6.321284   1.000000
   53       -6.276810   1.000000
   54       -6.193285   1.000000
   55       -6.133365   1.000000
   56       -6.045017   1.000000
   57       -5.992873   1.000000
   58       -5.894849   1.000000
   59       -5.765157   1.000000
   60       -5.614085   1.000000
   61       -5.520609   1.000000
   62       -5.514659   1.000000
   63       -5.466357   1.000000
   64       -5.265911   1.000000
   65       -5.200799   1.000000
   66       -5.072311   1.000000
   67       -4.904564   1.000000
   68       -4.798223   1.000000
   69       -4.741401   1.000000
   70       -4.614217   1.000000
   71       -4.503735   1.000000
   72       -4.451288   1.000000
   73       -4.353072   1.000000
   74       -4.233580   1.000000
   75       -4.210943   1.000000
   76       -4.065366   1.000000
   77       -3.927518   0.999999
   78       -3.663925   0.998332
   79       -3.541049   0.980593
   80       -3.322375   0.698430
   81       -2.961824   0.021199
   82       -2.799156   0.000737
   83       -2.652658   0.000012
   84       -2.607424   0.000003
   85       -2.545465   0.000000
   86       -2.461334   0.000000
   87       -2.183078   0.000000
   88       -2.123473   0.000000
   89       -2.095148   0.000000
   90       -2.027042   0.000000
   91       -1.700775   0.000000
   92       -1.570035   0.000000
   93       -1.409883   0.000000
   94       -1.285187   0.000000
   95       -1.153200   0.000000
   96       -1.106384   0.000000
   97       -1.006846   0.000000
   98       -0.880453   0.000000
   99       -0.863548   0.000000
  100       -0.781045   0.000000
  101       -0.758133   0.000000
  102       -0.648514   0.000000
  103       -0.574753   0.000000
  104       -0.419574   0.000000
  105       -0.212218   0.000000
  106       -0.126142   0.000000
  107       -0.047094   0.000000
  108        0.096018   0.000000
  109        0.107087   0.000000
  110        0.305437   0.000000
  111        0.392780   0.000000
  112        0.528291   0.000000
  113        0.622954   0.000000
  114        0.807839   0.000000
  115        0.989242   0.000000
  116        1.157995   0.000000
  117        1.277741   0.000000
  118        1.771816   0.000000
  119        1.959877   0.000000
  120        2.274720   0.000000
 
  0.2500000E+00  0.1250000E+00  0.0000000E+00  0.3125000E-01
    1      -17.703954   1.000000
    2      -17.076566   1.000000
    3      -16.896160   1.000000
    4      -16.728576   1.000000
    5      -16.494224   1.000000
    6      -16.432713   1.000000
    7      -16.353507   1.000000
    8      -16.258119   1.000000
    9      -16.227109   1.000000
   10      -16.008914   1.000000
   11      -15.958292   1.000000
   12      -15.850286   1.000000
   13      -15.738054   1.000000
   14      -15.684834   1.000000
   15      -15.609184   1.000000
   16      -15.508890   1.000000
   17      -15.267835   1.000000
   18      -15.194052   1.000000
   19       -9.631040   1.000000
   20       -9.494999   1.000000
   21       -9.283434   1.000000
   22       -9.144574   1.000000
   23       -8.921553   1.000000
   24       -8.685518   1.000000
   25       -8.571139   1.000000
   26       -8.480193   1.000000
   27       -8.446818   1.000000
   28       -8.389540   1.000000
   29       -8.289903   1.000000
   30       -8.218542   1.000000
   31       -8.152264   1.000000
   32       -8.091011   1.000000
   33       -7.925454   1.000000
   34       -7.851846   1.000000
   35       -7.775534   1.000000
   36       -7.683159   1.000000
   37       -7.575428   1.000000
   38       -7.497178   1.000000
   39       -7.354937   1.000000
   40       -7.315668   1.000000
   41       -7.258871   1.000000
   42       -7.181786   1.000000
   43       -7.060828   1.000000
   44       -6.942463   1.000000
   45       -6.900157   1.000000
   46       -6.819336   1.000000
   47       -6.749144   1.000000