       N       E                     dE             d eps       ncg     rms          rms(c)
DAV:   1     0.112454689693E+04    0.11245E+04   -0.35861E+04  8160   0.577E+02
DAV:   2    -0.113057638073E+01   -0.11257E+04   -0.10833E+04 10960   0.173E+02
DAV:   3    -0.199722382536E+03   -0.19859E+03   -0.19046E+03 10960   0.822E+01
DAV:   4    -0.208994924802E+03   -0.92725E+01   -0.89636E+01 12080   0.259E+01
DAV:   5    -0.209323869730E+03   -0.32894E+00   -0.32795E+00 11600   0.365E+00    0.275E+01
DAV:   6    -0.237090372198E+03   -0.27767E+02   -0.10967E+02 12720   0.604E+01    0.596E+01
DAV:   7    -0.196444175038E+03    0.40646E+02   -0.17744E+02 13400   0.152E+02    0.199E+01
DAV:   8    -0.189401066932E+03    0.70431E+01   -0.17421E+01 12120   0.127E+01    0.126E+01
DAV:   9    -0.188168758636E+03    0.12323E+01   -0.31496E+00 12920   0.637E+00    0.913E+00
DAV:  10    -0.186999115313E+03    0.11696E+01   -0.20832E+00 13440   0.736E+00    0.272E+00
DAV:  11    -0.186967677861E+03    0.31437E-01   -0.59084E-01 13280   0.251E+00    0.274E+00
DAV:  12    -0.187089337710E+03   -0.12166E+00   -0.81537E-01 12240   0.482E+00    0.496E+00
DAV:  13    -0.186880874227E+03    0.20846E+00   -0.54543E-01 13000   0.410E+00    0.210E+00
DAV:  14    -0.186856600994E+03    0.24273E-01   -0.12732E-01 13440   0.205E+00    0.168E+00
DAV:  15    -0.186837075669E+03    0.19525E-01   -0.71190E-02 11880   0.161E+00    0.865E-01
DAV:  16    -0.186829427805E+03    0.76479E-02   -0.12298E-02 12240   0.468E-01    0.449E-01
DAV:  17    -0.186827554982E+03    0.18728E-02   -0.79642E-03 12640   0.431E-01    0.234E-01
DAV:  18    -0.186827092555E+03    0.46243E-03   -0.24501E-03 11600   0.144E-01    0.179E-01
DAV:  19    -0.186826739506E+03    0.35305E-03   -0.98377E-04 10840   0.134E-01    0.479E-02
DAV:  20    -0.186827477142E+03   -0.73764E-03   -0.69501E-04  9320   0.585E-02    0.496E-02
DAV:  21    -0.186828067952E+03   -0.59081E-03   -0.26527E-04  7960   0.450E-02    0.445E-02
DAV:  22    -0.186829233301E+03   -0.11653E-02   -0.21752E-04  7600   0.617E-02    0.399E-02
DAV:  23    -0.186830459837E+03   -0.12265E-02   -0.14561E-04  7440   0.443E-02    0.113E-02
DAV:  24    -0.186831048019E+03   -0.58818E-03   -0.30868E-05  6760   0.141E-02    0.772E-03
DAV:  25    -0.186831413517E+03   -0.36550E-03   -0.15781E-05  5760   0.121E-02    0.493E-03
DAV:  26    -0.186831648482E+03   -0.23496E-03   -0.90372E-06  6800   0.731E-03    0.159E-03
DAV:  27    -0.186831751487E+03   -0.10300E-03   -0.38346E-06  7120   0.480E-03    0.160E-03
DAV:  28    -0.186831792245E+03   -0.40758E-04   -0.20032E-06  7400   0.364E-03
   1 F= -.18683179E+03 E0= -.18665924E+03  d E =-.186832E+03
       N       E                     dE             d eps       ncg     rms          rms(c)
DAV:   1    -0.187459331936E+03   -0.62758E+00   -0.27120E+02  8160   0.350E+01    0.460E+00
DAV:   2    -0.189260650098E+03   -0.18013E+01   -0.20040E+01 12280   0.149E+01    0.789E+00
DAV:   3    -0.189367177147E+03   -0.10653E+00   -0.36211E+00 12440   0.117E+01    0.697E+00
DAV:   4    -0.188724902055E+03    0.64228E+00   -0.65837E-01 12640   0.492E+00    0.178E+00
DAV:   5    -0.188721339697E+03    0.35624E-02   -0.29495E-01 10200   0.142E+00    0.214E+00
DAV:   6    -0.188660228089E+03    0.61112E-01   -0.28279E-01 10840   0.145E+00    0.116E+00
DAV:   7    -0.188642696593E+03    0.17531E-01   -0.80912E-02 11440   0.105E+00    0.820E-01
DAV:   8    -0.188638576995E+03    0.41196E-02   -0.28430E-02 12400   0.933E-01    0.780E-01
DAV:   9    -0.188634121368E+03    0.44556E-02   -0.10620E-02 13080   0.564E-01    0.238E-01
DAV:  10    -0.188633771795E+03    0.34957E-03   -0.28631E-03 12920   0.206E-01    0.151E-01
DAV:  11    -0.188633517838E+03    0.25396E-03   -0.14159E-03 12040   0.127E-01    0.109E-01
DAV:  12    -0.188633856683E+03   -0.33885E-03   -0.98986E-04 10960   0.188E-01    0.216E-01
DAV:  13    -0.188633532292E+03    0.32439E-03   -0.57102E-04  9560   0.148E-01    0.216E-02
DAV:  14    -0.188633639940E+03   -0.10765E-03   -0.68186E-05  7400   0.272E-02    0.302E-02
DAV:  15    -0.188633673898E+03   -0.33958E-04   -0.37823E-05  7560   0.210E-02
   2 F= -.18863367E+03 E0= -.18849138E+03  d E =-.180188E+01
       N       E                     dE             d eps       ncg     rms          rms(c)
DAV:   1    -0.190551989817E+03   -0.19183E+01   -0.30897E+01  9280   0.142E+01    0.446E+00
DAV:   2    -0.190545938733E+03    0.60511E-02   -0.28405E+00 11680   0.972E+00    0.748E+00
DAV:   3    -0.190024517903E+03    0.52142E+00   -0.13436E+00 12360   0.865E+00    0.413E+00
DAV:   4    -0.189819918401E+03    0.20460E+00   -0.69848E-01 12960   0.404E+00    0.247E+00
DAV:   5    -0.189737222408E+03    0.82696E-01   -0.29527E-01 11440   0.198E+00    0.118E+00
DAV:   6    -0.189723063902E+03    0.14159E-01   -0.63918E-02 11920   0.139E+00    0.855E-01
DAV:   7    -0.189717107288E+03    0.59566E-02   -0.15036E-02 12240   0.702E-01    0.215E-01
DAV:   8    -0.189716960441E+03    0.14685E-03   -0.21954E-03 10560   0.170E-01    0.143E-01
DAV:   9    -0.189717176201E+03   -0.21576E-03   -0.10443E-03 11080   0.144E-01    0.160E-01
DAV:  10    -0.189717575160E+03   -0.39896E-03   -0.14386E-03 10160   0.263E-01    0.251E-01
DAV:  11    -0.189716991744E+03    0.58342E-03   -0.83323E-04  9800   0.193E-01    0.267E-02
DAV:  12    -0.189717014270E+03   -0.22526E-04   -0.66935E-05  5720   0.320E-02
   3 F= -.18971701E+03 E0= -.18959717E+03  d E =-.108334E+01
       N       E                     dE             d eps       ncg     rms          rms(c)
DAV:   1    -0.191282131941E+03   -0.15651E+01   -0.71857E+01  8160   0.194E+01    0.464E+00
DAV:   2    -0.191157196328E+03    0.12494E+00   -0.54527E+00 13360   0.833E+00    0.521E+00
DAV:   3    -0.191196996465E+03   -0.39800E-01   -0.16174E+00 12280   0.927E+00    0.650E+00
DAV:   4    -0.190837652285E+03    0.35934E+00   -0.13703E+00 12600   0.737E+00    0.318E+00
DAV:   5    -0.190833403114E+03    0.42492E-02   -0.56379E-01 12000   0.490E+00    0.337E+00
DAV:   6    -0.190688530598E+03    0.14487E+00   -0.21611E-01 12160   0.327E+00    0.841E-01
DAV:   7    -0.190683072739E+03    0.54579E-02   -0.39141E-02 12320   0.907E-01    0.491E-01
DAV:   8    -0.190681547359E+03    0.15254E-02   -0.11064E-02 11640   0.640E-01    0.496E-01
DAV:   9    -0.190679353333E+03    0.21940E-02   -0.39994E-03 11360   0.464E-01    0.157E-01
DAV:  10    -0.190679625662E+03   -0.27233E-03   -0.11871E-03 10480   0.144E-01    0.126E-01
DAV:  11    -0.190679465679E+03    0.15998E-03   -0.87953E-04 10520   0.108E-01    0.485E-02
DAV:  12    -0.190679459588E+03    0.60907E-05   -0.14694E-04  7160   0.453E-02
   4 F= -.19067946E+03 E0= -.19057825E+03  d E =-.962445E+00
       N       E                     dE             d eps       ncg     rms          rms(c)
DAV:   1    -0.192064027447E+03   -0.13846E+01   -0.14996E+02  8160   0.274E+01    0.569E+00
DAV:   2    -0.191841804974E+03    0.22222E+00   -0.94431E+00 12040   0.869E+00    0.450E+00
DAV:   3    -0.192225399432E+03   -0.38359E+00   -0.23900E+00 12200   0.108E+01    0.914E+00
DAV:   4    -0.191561085799E+03    0.66431E+00   -0.23401E+00 12200   0.111E+01    0.353E+00
DAV:   5    -0.191387989845E+03    0.17310E+00   -0.49997E-01 12280   0.349E+00    0.176E+00
DAV:   6    -0.191371175850E+03    0.16814E-01   -0.20052E-01 12520   0.292E+00    0.180E+00
DAV:   7    -0.191347235610E+03    0.23940E-01   -0.10383E-01 12200   0.206E+00    0.675E-01
DAV:   8    -0.191339872831E+03    0.73628E-02   -0.11470E-02 11160   0.538E-01    0.201E-01
DAV:   9    -0.191341189971E+03   -0.13171E-02   -0.38554E-03 12560   0.423E-01    0.379E-01
DAV:  10    -0.191340159946E+03    0.10300E-02   -0.35234E-03 11280   0.406E-01    0.125E-01
DAV:  11    -0.191339993476E+03    0.16647E-03   -0.73869E-04 10440   0.123E-01    0.579E-02
DAV:  12    -0.191339959949E+03    0.33527E-04   -0.13262E-04  7400   0.470E-02
   5 F= -.19133996E+03 E0= -.19124564E+03  d E =-.660500E+00
       N       E                     dE             d eps       ncg     rms          rms(c)
DAV:   1    -0.191426671183E+03   -0.86678E-01   -0.77908E+00  8160   0.589E+00    0.715E-01
DAV:   2    -0.191489327083E+03   -0.62656E-01   -0.31665E-01 13200   0.271E+00    0.223E+00
DAV:   3    -0.191442465393E+03    0.46862E-01   -0.13571E-01 12240   0.241E+00    0.660E-01
DAV:   4    -0.191442894379E+03   -0.42899E-03   -0.20581E-02 11720   0.987E-01    0.724E-01
DAV:   5    -0.191437532266E+03    0.53621E-02   -0.10101E-02 11680   0.765E-01    0.240E-01
DAV:   6    -0.191437080670E+03    0.45160E-03   -0.25836E-03 10920   0.237E-01    0.141E-01
DAV:   7    -0.191436845709E+03    0.23496E-03   -0.14037E-03 10320   0.138E-01    0.824E-02
DAV:   8    -0.191436800694E+03    0.45015E-04   -0.42223E-04  9440   0.131E-01
   6 F= -.19143680E+03 E0= -.19134101E+03  d E =-.968407E-01
       N       E                     dE             d eps       ncg     rms          rms(c)
DAV:   1    -0.191459984175E+03   -0.23138E-01   -0.45490E-01  8160   0.143E+00    0.172E-01
DAV:   2    -0.191463270173E+03   -0.32860E-02   -0.16637E-02 13600   0.641E-01    0.507E-01
DAV:   3    -0.191460635730E+03    0.26344E-02   -0.62723E-03 11400   0.547E-01    0.143E-01
DAV:   4    -0.191460802997E+03   -0.16727E-03   -0.11632E-03  9920   0.235E-01    0.188E-01
DAV:   5    -0.191460459992E+03    0.34301E-03   -0.61843E-04  8640   0.193E-01    0.566E-02
DAV:   6    -0.191460465085E+03   -0.50933E-05   -0.13600E-04  5960   0.655E-02
   7 F= -.19146047E+03 E0= -.19136461E+03  d E =-.236644E-01
       N       E                     dE             d eps       ncg     rms          rms(c)
DAV:   1    -0.191364599883E+03    0.95860E-01   -0.77982E+00  8160   0.593E+00    0.731E-01
DAV:   2    -0.191421122177E+03   -0.56522E-01   -0.28963E-01 13600   0.286E+00    0.204E+00
DAV:   3    -0.191373777289E+03    0.47345E-01   -0.90851E-02 12400   0.224E+00    0.541E-01
DAV:   4    -0.191375965326E+03   -0.21880E-02   -0.18785E-02 10600   0.957E-01    0.761E-01
DAV:   5    -0.191370259792E+03    0.57055E-02   -0.12515E-02 10760   0.823E-01    0.282E-01
DAV:   6    -0.191369839208E+03    0.42058E-03   -0.39903E-03 11640   0.336E-01    0.206E-01
DAV:   7    -0.191370116763E+03   -0.27756E-03   -0.32627E-03 12160   0.393E-01    0.297E-01
DAV:   8    -0.191369198717E+03    0.91805E-03   -0.15991E-03 10000   0.280E-01    0.486E-02
DAV:   9    -0.191369194213E+03    0.45041E-05   -0.95554E-05  5920   0.448E-02
   8 F= -.19136919E+03 E0= -.19127455E+03  d E =0.912709E-01
       N       E                     dE             d eps       ncg     rms          rms(c)
DAV:   1    -0.191322114015E+03    0.47085E-01   -0.47349E+00  8160   0.462E+00    0.441E-01
DAV:   2    -0.191331887636E+03   -0.97736E-02   -0.12215E-01 12520   0.108E+00    0.538E-01
DAV:   3    -0.191332842241E+03   -0.95461E-03   -0.23246E-02 12600   0.101E+00    0.702E-01
DAV:   4    -0.191328637273E+03    0.42050E-02   -0.11038E-02 12040   0.708E-01    0.273E-01
DAV:   5    -0.191327879033E+03    0.75824E-03   -0.31542E-03 10200   0.325E-01    0.214E-01
DAV:   6    -0.191328122007E+03   -0.24297E-03   -0.29738E-03 12000   0.381E-01    0.244E-01
DAV:   7    -0.191327582729E+03    0.53928E-03   -0.15629E-03  9920   0.273E-01    0.127E-01
DAV:   8    -0.191327434539E+03    0.14819E-03   -0.44142E-04  8560   0.156E-01    0.608E-02
DAV:   9    -0.191327395952E+03    0.38586E-04   -0.88816E-05  6800   0.659E-02
   9 F= -.19132740E+03 E0= -.19123355E+03  d E =0.417983E-01
       N       E                     dE             d eps       ncg     rms          rms(c)
DAV:   1    -0.191385420049E+03   -0.57986E-01   -0.52258E+00  8160   0.483E+00    0.539E-01
DAV:   2    -0.191407998261E+03   -0.22578E-01   -0.16482E-01 13320   0.147E+00    0.122E+00
DAV:   3    -0.191395389341E+03    0.12609E-01   -0.59818E-02 12240   0.159E+00    0.659E-01
DAV:   4    -0.191392648693E+03    0.27406E-02   -0.12741E-02 11920   0.699E-01    0.461E-01
DAV:   5    -0.191390788367E+03    0.18603E-02   -0.56735E-03 11320   0.562E-01    0.258E-01
DAV:   6    -0.191390238244E+03    0.55012E-03   -0.25207E-03 12040   0.288E-01    0.143E-01
DAV:   7    -0.191390117658E+03    0.12059E-03   -0.12791E-03 11120   0.190E-01    0.118E-01
DAV:   8    -0.191390034561E+03    0.83097E-04   -0.59539E-04  8960   0.179E-01
  10 F= -.19139003E+03 E0= -.19129430E+03  d E =-.626386E-01
       N       E                     dE             d eps       ncg     rms          rms(c)
DAV:   1    -0.191409173785E+03   -0.19056E-01   -0.39091E-01  8160   0.135E+00    0.215E-01
DAV:   2    -0.191413284427E+03   -0.41106E-02   -0.20125E-02 12760   0.807E-01    0.616E-01
DAV:   3    -0.191409262823E+03    0.40216E-02   -0.87467E-03 11560   0.657E-01    0.149E-01
DAV:   4    -0.191409602240E+03   -0.33942E-03   -0.20353E-03 10120   0.297E-01    0.257E-01
DAV:   5    -0.191408986137E+03    0.61610E-03   -0.14125E-03  9760   0.268E-01    0.891E-02
DAV:   6    -0.191408897651E+03    0.88486E-04   -0.27700E-04  6000   0.856E-02
  11 F= -.19140890E+03 E0= -.19131255E+03  d E =-.188631E-01
       N       E                     dE             d eps       ncg     rms          rms(c)
DAV:   1    -0.191491595613E+03   -0.82609E-01   -0.75426E+00  8160   0.584E+00    0.724E-01
DAV:   2    -0.191553049071E+03   -0.61453E-01   -0.28885E-01 13600   0.288E+00    0.236E+00
DAV:   3    -0.191501908623E+03    0.51140E-01   -0.13767E-01 12280   0.241E+00    0.645E-01
DAV:   4    -0.191503219701E+03   -0.13111E-02   -0.23619E-02 11320   0.106E+00    0.785E-01
DAV:   5    -0.191496988062E+03    0.62316E-02   -0.12280E-02 11880   0.801E-01    0.260E-01
DAV:   6    -0.191496359382E+03    0.62868E-03   -0.35469E-03 11280   0.266E-01    0.152E-01
DAV:   7    -0.191496106735E+03    0.25265E-03   -0.15913E-03 11640   0.188E-01    0.124E-01
DAV:   8    -0.191495985026E+03    0.12171E-03   -0.65107E-04  8920   0.182E-01    0.901E-02
DAV:   9    -0.191495898100E+03    0.86926E-04   -0.16330E-04  6400   0.914E-02
  12 F= -.19149590E+03 E0= -.19139910E+03  d E =-.870004E-01
       N       E                     dE             d eps       ncg     rms          rms(c)
DAV:   1    -0.191242450275E+03    0.25353E+00   -0.57341E+01  8160   0.161E+01    0.174E+00
DAV:   2    -0.191496828371E+03   -0.25438E+00   -0.17266E+00 13200   0.553E+00    0.372E+00
DAV:   3    -0.191319837915E+03    0.17699E+00   -0.36368E-01 11680   0.451E+00    0.145E+00
DAV:   4    -0.191320492206E+03   -0.65429E-03   -0.11373E-01 12360   0.206E+00    0.159E+00
DAV:   5    -0.191298369371E+03    0.22123E-01   -0.67557E-02 11720   0.183E+00    0.792E-01
DAV:   6    -0.191293711086E+03    0.46583E-02   -0.24483E-02 12200   0.944E-01    0.467E-01
DAV:   7    -0.191292646092E+03    0.10650E-02   -0.12384E-02 12760   0.675E-01    0.501E-01
DAV:   8    -0.191290358081E+03    0.22880E-02   -0.55331E-03 11600   0.563E-01    0.180E-01
DAV:   9    -0.191290016155E+03    0.34193E-03   -0.90585E-04 10360   0.167E-01    0.584E-02
DAV:  10    -0.191289968506E+03    0.47648E-04   -0.35120E-04 10240   0.606E-02
  13 F= -.19128997E+03 E0= -.19119737E+03  d E =0.205930E+00
       N       E                     dE             d eps       ncg     rms          rms(c)
DAV:   1    -0.191260341543E+03    0.29675E-01   -0.72960E+00  8160   0.566E+00    0.561E-01
DAV:   2    -0.191276155230E+03   -0.15814E-01   -0.15750E-01 12440   0.139E+00    0.845E-01
DAV:   3    -0.191269683229E+03    0.64720E-02   -0.32328E-02 12880   0.127E+00    0.601E-01
DAV:   4    -0.191266872948E+03    0.28103E-02   -0.11361E-02 12320   0.735E-01    0.344E-01
DAV:   5    -0.191265797574E+03    0.10754E-02   -0.51462E-03 11800   0.467E-01    0.316E-01
DAV:   6    -0.191265514105E+03    0.28347E-03   -0.41397E-03 11280   0.468E-01    0.251E-01
DAV:   7    -0.191264916489E+03    0.59762E-03   -0.14567E-03 10360   0.244E-01    0.682E-02
DAV:   8    -0.191264887406E+03    0.29083E-04   -0.30298E-04  7800   0.110E-01
  14 F= -.19126489E+03 E0= -.19117289E+03  d E =0.250811E-01
       N       E                     dE             d eps       ncg     rms          rms(c)
DAV:   1    -0.191292079359E+03   -0.27163E-01   -0.21081E+00  8160   0.308E+00    0.411E-01
DAV:   2    -0.191308007760E+03   -0.15928E-01   -0.86832E-02 13400   0.154E+00    0.111E+00
DAV:   3    -0.191294949387E+03    0.13058E-01   -0.33869E-02 12240   0.129E+00    0.343E-01
DAV:   4    -0.191294711092E+03    0.23829E-03   -0.67431E-03 11280   0.491E-01    0.369E-01
DAV:   5    -0.191293753568E+03    0.95752E-03   -0.43128E-03 11480   0.461E-01    0.226E-01
DAV:   6    -0.191293132496E+03    0.62107E-03   -0.14084E-03 10080   0.219E-01    0.661E-02
DAV:   7    -0.191293229437E+03   -0.96941E-04   -0.54477E-04 10720   0.121E-01
  15 F= -.19129323E+03 E0= -.19119866E+03  d E =-.283420E-01
       N       E                     dE             d eps       ncg     rms          rms(c)
DAV:   1    -0.191339302217E+03   -0.46170E-01   -0.10962E+01  8160   0.700E+00    0.835E-01
DAV:   2    -0.191397349127E+03   -0.58047E-01   -0.37706E-01 13480   0.289E+00    0.202E+00
DAV:   3    -0.191357388604E+03    0.39961E-01   -0.13895E-01 12320   0.255E+00    0.819E-01
DAV:   4    -0.191353757019E+03    0.36316E-02   -0.29089E-02 12200   0.101E+00    0.720E-01
DAV:   5    -0.191350678979E+03    0.30780E-02   -0.18304E-02 12240   0.947E-01    0.509E-01
DAV:   6    -0.191347728808E+03    0.29502E-02   -0.64641E-03 12280   0.486E-01    0.149E-01
DAV:   7    -0.191347688701E+03    0.40107E-04   -0.18695E-03 10600   0.159E-01    0.880E-02
DAV:   8    -0.191347551440E+03    0.13726E-03   -0.49697E-04 10920   0.123E-01    0.744E-02
DAV:   9    -0.191347515652E+03    0.35788E-04   -0.18833E-04  6800   0.103E-01
  16 F= -.19134752E+03 E0= -.19124906E+03  d E =-.542862E-01
       N       E                     dE             d eps       ncg     rms          rms(c)
DAV:   1    -0.191358923177E+03   -0.11372E-01   -0.42474E-01  8160   0.143E+00    0.218E-01
DAV:   2    -0.191361070808E+03   -0.21476E-02   -0.18871E-02 13120   0.624E-01    0.420E-01
DAV:   3    -0.191359330155E+03    0.17407E-02   -0.60551E-03 11640   0.562E-01    0.203E-01
DAV:   4    -0.191359018894E+03    0.31126E-03   -0.19193E-03  9960   0.260E-01    0.167E-01
DAV:   5    -0.191358935695E+03    0.83199E-04   -0.13172E-03  9800   0.245E-01    0.167E-01
DAV:   6    -0.191358657071E+03    0.27862E-03   -0.65308E-04  8200   0.174E-01    0.498E-02
DAV:   7    -0.191358645079E+03    0.11992E-04   -0.16750E-04  5760   0.679E-02
  17 F= -.19135865E+03 E0= -.19126007E+03  d E =-.111294E-01
       N       E                     dE             d eps       ncg     rms          rms(c)
DAV:   1    -0.191383104919E+03   -0.24448E-01   -0.19815E+00  8160   0.301E+00    0.355E-01
DAV:   2    -0.191390395417E+03   -0.72905E-02   -0.63741E-02 13600   0.102E+00    0.646E-01
DAV:   3    -0.191386505549E+03    0.38899E-02   -0.17790E-02 12280   0.935E-01    0.382E-01
DAV:   4    -0.191385428855E+03    0.10767E-02   -0.52221E-03 11440   0.435E-01    0.259E-01
DAV:   5    -0.191385244138E+03    0.18472E-03   -0.32149E-03 11160   0.391E-01    0.265E-01
DAV:   6    -0.191384569950E+03    0.67419E-03   -0.15860E-03  9640   0.269E-01    0.752E-02
DAV:   7    -0.191384573640E+03   -0.36903E-05   -0.38288E-04  8520   0.956E-02
  18 F= -.19138457E+03 E0= -.19128602E+03  d E =-.259286E-01
       N       E                     dE             d eps       ncg     rms          rms(c)
DAV:   1    -0.191369445993E+03    0.15124E-01   -0.72191E-01  8160   0.183E+00    0.236E-01
DAV:   2    -0.191372855268E+03   -0.34093E-02   -0.25467E-02 12840   0.738E-01    0.509E-01
DAV:   3    -0.191370273083E+03    0.25822E-02   -0.77831E-03 12040   0.644E-01    0.229E-01
DAV:   4    -0.191370071040E+03    0.20204E-03   -0.23877E-03 10560   0.311E-01    0.211E-01
DAV:   5    -0.191369768762E+03    0.30228E-03   -0.15223E-03  9560   0.282E-01    0.146E-01
DAV:   6    -0.191369537598E+03    0.23116E-03   -0.61843E-04  9480   0.153E-01    0.534E-02
DAV:   7    -0.191369633555E+03   -0.95956E-04   -0.37197E-04  8400   0.131E-01
  19 F= -.19136963E+03 E0= -.19127081E+03  d E =0.149401E-01
       N       E                     dE             d eps       ncg     rms          rms(c)
DAV:   1    -0.191350265017E+03    0.19273E-01   -0.11269E+00  8160   0.228E+00    0.257E-01
DAV:   2    -0.191353740670E+03   -0.34757E-02   -0.34163E-02 13560   0.679E-01    0.431E-01
DAV:   3    -0.191352475660E+03    0.12650E-02   -0.92767E-03 12480   0.645E-01    0.339E-01
DAV:   4    -0.191351722839E+03    0.75282E-03   -0.37291E-03 11360   0.377E-01    0.204E-01
DAV:   5    -0.191351459430E+03    0.26341E-03   -0.15462E-03  9760   0.276E-01    0.165E-01
DAV:   6    -0.191351207073E+03    0.25236E-03   -0.80153E-04  9600   0.197E-01    0.705E-02
DAV:   7    -0.191351285232E+03   -0.78160E-04   -0.37136E-04  9200   0.129E-01
  20 F= -.19135129E+03 E0= -.19125248E+03  d E =0.183483E-01
       N       E                     dE             d eps       ncg     rms          rms(c)
DAV:   1    -0.191357514084E+03   -0.63070E-02   -0.41198E-01  8160   0.135E+00    0.160E-01
DAV:   2    -0.191359840221E+03   -0.23261E-02   -0.13321E-02 13600   0.560E-01    0.412E-01
DAV:   3    -0.191358115296E+03    0.17249E-02   -0.46987E-03 11720   0.503E-01    0.159E-01
DAV:   4    -0.191357956652E+03    0.15864E-03   -0.94917E-04  9640   0.200E-01    0.119E-01
DAV:   5    -0.191357863283E+03    0.93369E-04   -0.47279E-04  8240   0.161E-01
  21 F= -.19135786E+03 E0= -.19125845E+03  d E =-.657805E-02
       N       E                     dE             d eps       ncg     rms          rms(c)
DAV:   1    -0.191365642233E+03   -0.76856E-02   -0.17031E+00  8160   0.273E+00    0.252E-01
DAV:   2    -0.191369233230E+03   -0.35910E-02   -0.33682E-02 12240   0.655E-01    0.434E-01
DAV:   3    -0.191368054563E+03    0.11787E-02   -0.79146E-03 12640   0.635E-01    0.331E-01
DAV:   4    -0.191367286152E+03    0.76841E-03   -0.28843E-03 11000   0.346E-01    0.154E-01
DAV:   5    -0.191366907093E+03    0.37906E-03   -0.10062E-03 10240   0.151E-01    0.893E-02
DAV:   6    -0.191367248660E+03   -0.34157E-03   -0.11120E-03 10200   0.230E-01    0.201E-01
DAV:   7    -0.191366836448E+03    0.41221E-03   -0.62748E-04  8160   0.172E-01    0.146E-02
DAV:   8    -0.191366854353E+03   -0.17905E-04   -0.28181E-05  5560   0.202E-02
  22 F= -.19136685E+03 E0= -.19126848E+03  d E =-.899107E-02
       N       E                     dE             d eps       ncg     rms          rms(c)
DAV:   1    -0.191383943226E+03   -0.17107E-01   -0.16171E+00  8160   0.273E+00    0.380E-01
DAV:   2    -0.191393384140E+03   -0.94409E-02   -0.62579E-02 13600   0.123E+00    0.892E-01
DAV:   3    -0.191385495679E+03    0.78885E-02   -0.24274E-02 12200   0.111E+00    0.352E-01
DAV:   4    -0.191384948377E+03    0.54730E-03   -0.61817E-03 11440   0.491E-01    0.328E-01
DAV:   5    -0.191384223324E+03    0.72505E-03   -0.36993E-03 10160   0.438E-01    0.237E-01
DAV:   6    -0.191383594979E+03    0.62834E-03   -0.16787E-03 10480   0.252E-01    0.904E-02
DAV:   7    -0.191383789940E+03   -0.19496E-03   -0.98750E-04  9920   0.202E-01    0.166E-01
DAV:   8    -0.191383515782E+03    0.27416E-03   -0.52258E-04  8280   0.162E-01    0.389E-02
DAV:   9    -0.191383503534E+03    0.12248E-04   -0.46334E-05  5640   0.360E-02
  23 F= -.19138350E+03 E0= -.19128417E+03  d E =-.166492E-01
       N       E                     dE             d eps       ncg     rms          rms(c)
DAV:   1    -0.191394708067E+03   -0.11192E-01   -0.47294E-01  8160   0.147E+00    0.169E-01
DAV:   2    -0.191396754692E+03   -0.20466E-02   -0.14864E-02 13560   0.480E-01    0.367E-01
DAV:   3    -0.191395598036E+03    0.11567E-02   -0.49311E-03 12160   0.492E-01    0.205E-01
DAV:   4    -0.191395256496E+03    0.34154E-03   -0.11619E-03  9520   0.205E-01    0.993E-02
DAV:   5    -0.191395207576E+03    0.48920E-04   -0.41700E-04  8720   0.146E-01
  24 F= -.19139521E+03 E0= -.19129585E+03  d E =-.117040E-01
       N       E                     dE             d eps       ncg     rms          rms(c)
DAV:   1    -0.191408951333E+03   -0.13695E-01   -0.65959E-01  8160   0.175E+00    0.194E-01
DAV:   2    -0.191410876821E+03   -0.19255E-02   -0.17790E-02 13600   0.467E-01    0.345E-01
DAV:   3    -0.191410028194E+03    0.84863E-03   -0.49393E-03 11560   0.494E-01    0.234E-01
DAV:   4    -0.191409684693E+03    0.34350E-03   -0.14862E-03  9600   0.256E-01    0.141E-01
DAV:   5    -0.191409538171E+03    0.14652E-03   -0.75335E-04  9080   0.196E-01    0.117E-01
DAV:   6    -0.191409465624E+03    0.72546E-04   -0.58001E-04  8840   0.163E-01
  25 F= -.19140947E+03 E0= -.19131119E+03  d E =-.142580E-01
       N       E                     dE             d eps       ncg     rms          rms(c)
DAV:   1    -0.191403089328E+03    0.64488E-02   -0.13005E+00  8160   0.241E+00    0.262E-01
DAV:   2    -0.191408290000E+03   -0.52007E-02   -0.34128E-02 13360   0.869E-01    0.667E-01
DAV:   3    -0.191404321488E+03    0.39685E-02   -0.11274E-02 11640   0.744E-01    0.247E-01
DAV:   4    -0.191404340079E+03   -0.18591E-04   -0.30694E-03 10720   0.350E-01    0.249E-01
DAV:   5    -0.191403761748E+03    0.57833E-03   -0.19990E-03  9920   0.317E-01    0.141E-01
DAV:   6    -0.191403655311E+03    0.10644E-03   -0.84099E-04  9600   0.162E-01    0.895E-02
DAV:   7    -0.191403643882E+03    0.11429E-04   -0.44534E-04  8760   0.149E-01
  26 F= -.19140364E+03 E0= -.19130385E+03  d E =0.582174E-02
       N       E                     dE             d eps       ncg     rms          rms(c)
DAV:   1    -0.191411945274E+03   -0.82900E-02   -0.17063E-01  8160   0.892E-01    0.103E-01
DAV:   2    -0.191412712868E+03   -0.76759E-03   -0.56036E-03 12760   0.302E-01    0.228E-01
DAV:   3    -0.191412270271E+03    0.44260E-03   -0.18909E-03 10280   0.299E-01    0.123E-01
DAV:   4    -0.191412154733E+03    0.11554E-03   -0.43480E-04  7920   0.125E-01    0.655E-02
DAV:   5    -0.191412136844E+03    0.17889E-04   -0.16395E-04  5760   0.972E-02
  27 F= -.19141214E+03 E0= -.19131248E+03  d E =-.849296E-02
       N       E                     dE             d eps       ncg     rms          rms(c)
DAV:   1    -0.191425292666E+03   -0.13138E-01   -0.43526E-01  8160   0.142E+00    0.198E-01
DAV:   2    -0.191429748028E+03   -0.44554E-02   -0.18905E-02 12720   0.725E-01    0.637E-01
DAV:   3    -0.191425705621E+03    0.40424E-02   -0.83334E-03 11120   0.667E-01    0.140E-01
DAV:   4    -0.191425632301E+03    0.73320E-04   -0.86948E-04  9560   0.153E-01
  28 F= -.19142563E+03 E0= -.19132693E+03  d E =-.134955E-01
       N       E                     dE             d eps       ncg     rms          rms(c)
DAV:   1    -0.191409045659E+03    0.16660E-01   -0.77267E-01  8160   0.191E+00    0.298E-01
DAV:   2    -0.191425765728E+03   -0.16720E-01   -0.50121E-02 12240   0.134E+00    0.129E+00
DAV:   3    -0.191409343407E+03    0.16422E-01   -0.29711E-02 11480   0.120E+00    0.158E-01
DAV:   4    -0.191409516411E+03   -0.17300E-03   -0.18785E-03 11480   0.235E-01    0.193E-01
DAV:   5    -0.191409152621E+03    0.36379E-03   -0.11541E-03 11320   0.251E-01    0.115E-01
DAV:   6    -0.191409071292E+03    0.81329E-04   -0.51153E-04  8360   0.150E-01
  29 F= -.19140907E+03 E0= -.19130914E+03  d E =0.165610E-01
       N       E                     dE             d eps       ncg     rms          rms(c)
DAV:   1    -0.191384731433E+03    0.24421E-01   -0.25266E+00  8160   0.345E+00    0.485E-01
DAV:   2    -0.191412372176E+03   -0.27641E-01   -0.10889E-01 13240   0.180E+00    0.164E+00
DAV:   3    -0.191386220584E+03    0.26152E-01   -0.54155E-02 11840   0.165E+00    0.334E-01
DAV:   4    -0.191386914344E+03   -0.69376E-03   -0.74348E-03 11400   0.508E-01    0.458E-01
DAV:   5    -0.191385133424E+03    0.17809E-02   -0.64358E-03 11480   0.561E-01    0.274E-01
DAV:   6    -0.191384787950E+03    0.34547E-03   -0.30022E-03 10200   0.323E-01    0.205E-01
DAV:   7    -0.191384608916E+03    0.17903E-03   -0.18453E-03 10040   0.292E-01    0.159E-01
DAV:   8    -0.191384309029E+03    0.29989E-03   -0.68862E-04  9000   0.176E-01    0.361E-02
DAV:   9    -0.191384291187E+03    0.17842E-04   -0.70649E-05  6560   0.391E-02
  30 F= -.19138429E+03 E0= -.19128243E+03  d E =0.247801E-01
       N       E                     dE             d eps       ncg     rms          rms(c)
DAV:   1    -0.191423952056E+03   -0.39643E-01   -0.40576E+00  8160   0.434E+00    0.556E-01
DAV:   2    -0.191452519948E+03   -0.28568E-01   -0.14588E-01 13200   0.183E+00    0.157E+00
DAV:   3    -0.191428672761E+03    0.23847E-01   -0.60246E-02 12040   0.177E+00    0.485E-01
DAV:   4    -0.191426727742E+03    0.19450E-02   -0.87666E-03 11040   0.497E-01    0.274E-01
DAV:   5    -0.191425774265E+03    0.95348E-03   -0.37795E-03 11400   0.337E-01    0.265E-01
DAV:   6    -0.191425777486E+03   -0.32211E-05   -0.41745E-03 11240   0.420E-01    0.264E-01
DAV:   7    -0.191425361869E+03    0.41562E-03   -0.21230E-03  9800   0.289E-01    0.164E-01
DAV:   8    -0.191425103584E+03    0.25829E-03   -0.66832E-04  8400   0.195E-01    0.637E-02
DAV:   9    -0.191425059762E+03    0.43822E-04   -0.99307E-05  6640   0.689E-02
  31 F= -.19142506E+03 E0= -.19132494E+03  d E =-.407686E-01
       N       E                     dE             d eps       ncg     rms          rms(c)
DAV:   1    -0.191426109454E+03   -0.10059E-02   -0.19281E-01  8160   0.925E-01    0.955E-02
DAV:   2    -0.191427049464E+03   -0.94001E-03   -0.52463E-03 13600   0.332E-01    0.274E-01
DAV:   3    -0.191426315875E+03    0.73359E-03   -0.17819E-03  9680   0.296E-01    0.748E-02
DAV:   4    -0.191426310232E+03    0.56434E-05   -0.18656E-04  5680   0.810E-02
  32 F= -.19142631E+03 E0= -.19132574E+03  d E =-.125047E-02
       N       E                     dE             d eps       ncg     rms          rms(c)
DAV:   1    -0.191454512607E+03   -0.28197E-01   -0.29091E+00  8160   0.369E+00    0.471E-01
DAV:   2    -0.191482628595E+03   -0.28116E-01   -0.11274E-01 13520   0.188E+00    0.158E+00
DAV:   3    -0.191456954780E+03    0.25674E-01   -0.49462E-02 12200   0.164E+00    0.294E-01
DAV:   4    -0.191456370380E+03    0.58440E-03   -0.42579E-03 11440   0.312E-01    0.203E-01
DAV:   5    -0.191455706941E+03    0.66344E-03   -0.20903E-03 13120   0.266E-01    0.139E-01
DAV:   6    -0.191455990631E+03   -0.28369E-03   -0.16012E-03 11000   0.306E-01    0.199E-01
DAV:   7    -0.191455533056E+03    0.45757E-03   -0.91078E-04 10000   0.208E-01    0.693E-02
DAV:   8    -0.191455520461E+03    0.12596E-04   -0.23014E-04  6360   0.104E-01
  33 F= -.19145552E+03 E0= -.19135749E+03  d E =-.292102E-01
       N       E                     dE             d eps       ncg     rms          rms(c)
DAV:   1    -0.191459582090E+03   -0.40490E-02   -0.17693E+00  8160   0.280E+00    0.288E-01
DAV:   2    -0.191467058945E+03   -0.74769E-02   -0.44041E-02 13600   0.966E-01    0.768E-01
DAV:   3    -0.191461391914E+03    0.56670E-02   -0.15554E-02 12520   0.869E-01    0.258E-01
DAV:   4    -0.191461198147E+03    0.19377E-03   -0.27628E-03 10880   0.308E-01    0.220E-01
DAV:   5    -0.191460958981E+03    0.23917E-03   -0.20476E-03 10320   0.322E-01    0.209E-01
DAV:   6    -0.191460626414E+03    0.33257E-03   -0.12735E-03  9560   0.234E-01    0.101E-01
DAV:   7    -0.191460745451E+03   -0.11904E-03   -0.73261E-04  8680   0.192E-01    0.136E-01
DAV:   8    -0.191460520803E+03    0.22465E-03   -0.33465E-04  7400   0.135E-01    0.173E-02
DAV:   9    -0.191460528590E+03   -0.77868E-05   -0.29426E-05  6360   0.214E-02
  34 F= -.19146053E+03 E0= -.19136125E+03  d E =-.500813E-02
       N       E                     dE             d eps       ncg     rms          rms(c)
DAV:   1    -0.191436921937E+03    0.23599E-01   -0.31197E+00  8160   0.372E+00    0.358E-01
DAV:   2    -0.191445337382E+03   -0.84154E-02   -0.70521E-02 12840   0.951E-01    0.710E-01
DAV:   3    -0.191441470409E+03    0.38670E-02   -0.18906E-02 11880   0.918E-01    0.457E-01
DAV:   4    -0.191440098249E+03    0.13722E-02   -0.59262E-03 11040   0.454E-01    0.239E-01
DAV:   5    -0.191439530182E+03    0.56807E-03   -0.19913E-03 10800   0.311E-01    0.180E-01
DAV:   6    -0.191439432663E+03    0.97519E-04   -0.14771E-03 10320   0.291E-01    0.139E-01
DAV:   7    -0.191439206517E+03    0.22615E-03   -0.46589E-04  9200   0.140E-01    0.355E-02
DAV:   8    -0.191439205162E+03    0.13547E-05   -0.88705E-05  7560   0.614E-02
  35 F= -.19143921E+03 E0= -.19134046E+03  d E =0.213234E-01
       N       E                     dE             d eps       ncg     rms          rms(c)
DAV:   1    -0.191469279616E+03   -0.30073E-01   -0.26828E+00  8160   0.352E+00    0.407E-01
DAV:   2    -0.191482772905E+03   -0.13493E-01   -0.79390E-02 13600   0.133E+00    0.103E+00
DAV:   3    -0.191471997201E+03    0.10776E-01   -0.25756E-02 11680   0.120E+00    0.335E-01
DAV:   4    -0.191471444209E+03    0.55299E-03   -0.44564E-03 10640   0.426E-01    0.261E-01
DAV:   5    -0.191470912929E+03    0.53128E-03   -0.29104E-03 11200   0.415E-01    0.231E-01
DAV:   6    -0.191470659474E+03    0.25346E-03   -0.19731E-03 12000   0.307E-01    0.163E-01
DAV:   7    -0.191470688331E+03   -0.28857E-04   -0.14718E-03  9680   0.255E-01    0.182E-01
DAV:   8    -0.191470337360E+03    0.35097E-03   -0.57398E-04  8240   0.165E-01    0.279E-02
DAV:   9    -0.191470340303E+03   -0.29426E-05   -0.46841E-05  5760   0.292E-02
  36 F= -.19147034E+03 E0= -.19137471E+03  d E =-.311351E-01
       N       E                     dE             d eps       ncg     rms          rms(c)
DAV:   1    -0.191479381092E+03   -0.90437E-02   -0.68918E-01  8160   0.176E+00    0.192E-01
DAV:   2    -0.191482026678E+03   -0.26456E-02   -0.19309E-02 13120   0.599E-01    0.455E-01
DAV:   3    -0.191480306349E+03    0.17203E-02   -0.64185E-03 10920   0.527E-01    0.208E-01
DAV:   4    -0.191480082235E+03    0.22411E-03   -0.15173E-03  9640   0.248E-01    0.154E-01
DAV:   5    -0.191479900040E+03    0.18220E-03   -0.74319E-04  9960   0.213E-01    0.108E-01
DAV:   6    -0.191479790105E+03    0.10993E-03   -0.38070E-04  8120   0.132E-01    0.467E-02
DAV:   7    -0.191479769656E+03    0.20449E-04   -0.11579E-04  6000   0.533E-02
  37 F= -.19147977E+03 E0= -.19138382E+03  d E =-.942935E-02
       N       E                     dE             d eps       ncg     rms          rms(c)
DAV:   1    -0.191515404801E+03   -0.35615E-01   -0.23170E+00  8160   0.330E+00    0.422E-01
DAV:   2    -0.191530564902E+03   -0.15160E-01   -0.89281E-02 13320   0.141E+00    0.111E+00
DAV:   3    -0.191518893590E+03    0.11671E-01   -0.31582E-02 12400   0.130E+00    0.374E-01
DAV:   4    -0.191517941696E+03    0.95189E-03   -0.55040E-03 11520   0.416E-01    0.276E-01
DAV:   5    -0.191517597934E+03    0.34376E-03   -0.35918E-03 10760   0.419E-01    0.275E-01
DAV:   6    -0.191516995401E+03    0.60253E-03   -0.20963E-03  9920   0.313E-01    0.118E-01
DAV:   7    -0.191516920668E+03    0.74733E-04   -0.71169E-04  9960   0.149E-01
  38 F= -.19151692E+03 E0= -.19142338E+03  d E =-.371510E-01
       N       E                     dE             d eps       ncg     rms          rms(c)
DAV:   1    -0.191524788906E+03   -0.77935E-02   -0.10724E-01  8160   0.716E-01    0.107E-01
DAV:   2    -0.191526012691E+03   -0.12238E-02   -0.50550E-03 12480   0.400E-01    0.317E-01
DAV:   3    -0.191524880780E+03    0.11319E-02   -0.19064E-03 11000   0.352E-01    0.778E-02
DAV:   4    -0.191524907131E+03   -0.26351E-04   -0.36676E-04  8200   0.129E-01
  39 F= -.19152491E+03 E0= -.19143157E+03  d E =-.798646E-02
       N       E                     dE             d eps       ncg     rms          rms(c)
DAV:   1    -0.191556312714E+03   -0.31432E-01   -0.17655E+00  8160   0.286E+00    0.348E-01
DAV:   2    -0.191565799701E+03   -0.94870E-02   -0.59641E-02 13400   0.105E+00    0.850E-01
DAV:   3    -0.191559043722E+03    0.67560E-02   -0.19618E-02 12240   0.102E+00    0.342E-01
DAV:   4    -0.191558386769E+03    0.65695E-03   -0.43144E-03 10760   0.384E-01    0.245E-01
DAV:   5    -0.191558078512E+03    0.30826E-03   -0.27959E-03 11200   0.384E-01    0.234E-01
DAV:   6    -0.191557618826E+03    0.45969E-03   -0.14934E-03 10400   0.273E-01    0.990E-02
DAV:   7    -0.191557607826E+03    0.11000E-04   -0.47427E-04  8760   0.150E-01
  40 F= -.19155761E+03 E0= -.19146659E+03  d E =-.327007E-01
       N       E                     dE             d eps       ncg     rms          rms(c)
DAV:   1    -0.191551458819E+03    0.61600E-02   -0.80550E-02  8160   0.607E-01    0.805E-02
DAV:   2    -0.191552099186E+03   -0.64037E-03   -0.33124E-03 12160   0.282E-01    0.237E-01
DAV:   3    -0.191551537313E+03    0.56187E-03   -0.11506E-03  9800   0.254E-01    0.640E-02
DAV:   4    -0.191551533331E+03    0.39816E-05   -0.18305E-04  6600   0.908E-02
  41 F= -.19155153E+03 E0= -.19146049E+03  d E =0.607449E-02
       N       E                     dE             d eps       ncg     rms          rms(c)
DAV:   1    -0.191579106293E+03   -0.27569E-01   -0.14404E+00  8160   0.259E+00    0.291E-01
DAV:   2    -0.191586150257E+03   -0.70440E-02   -0.49073E-02 13120   0.949E-01    0.678E-01
DAV:   3    -0.191581679095E+03    0.44712E-02   -0.11992E-02 12120   0.858E-01    0.264E-01
DAV:   4    -0.191581217394E+03    0.46170E-03   -0.24173E-03 11000   0.308E-01    0.192E-01
DAV:   5    -0.191580945040E+03    0.27235E-03   -0.14896E-03 10120   0.277E-01    0.145E-01
DAV:   6    -0.191580912343E+03    0.32697E-04   -0.85882E-04  9800   0.201E-01
  42 F= -.19158091E+03 E0= -.19149183E+03  d E =-.293790E-01
       N       E                     dE             d eps       ncg     rms          rms(c)
DAV:   1    -0.191564643815E+03    0.16301E-01   -0.47908E-01  8160   0.151E+00    0.204E-01
DAV:   2    -0.191569835586E+03   -0.51918E-02   -0.22629E-02 13120   0.796E-01    0.642E-01
DAV:   3    -0.191565314184E+03    0.45214E-02   -0.84047E-03 11320   0.707E-01    0.153E-01
DAV:   4    -0.191565254941E+03    0.59243E-04   -0.11338E-03  9680   0.193E-01    0.144E-01
DAV:   5    -0.191565085877E+03    0.16906E-03   -0.71553E-04  9360   0.189E-01    0.100E-01
DAV:   6    -0.191565006023E+03    0.79854E-04   -0.40208E-04  8320   0.132E-01
  43 F= -.19156501E+03 E0= -.19147446E+03  d E =0.159063E-01
       N       E                     dE             d eps       ncg     rms          rms(c)
DAV:   1    -0.191570478713E+03   -0.53928E-02   -0.93124E-02  8160   0.660E-01    0.126E-01
DAV:   2    -0.191573237940E+03   -0.27592E-02   -0.70433E-03 12280   0.605E-01    0.487E-01
DAV:   3    -0.191570519180E+03    0.27188E-02   -0.35294E-03 10920   0.497E-01    0.928E-02
DAV:   4    -0.191570503733E+03    0.15447E-04   -0.39887E-04  8120   0.131E-01
  44 F= -.19157050E+03 E0= -.19148015E+03  d E =-.549771E-02
       N       E                     dE             d eps       ncg     rms          rms(c)
DAV:   1    -0.191594148830E+03   -0.23630E-01   -0.12019E+00  8160   0.235E+00    0.267E-01
DAV:   2    -0.191598773902E+03   -0.46251E-02   -0.39554E-02 13560   0.796E-01    0.528E-01
DAV:   3    -0.191596391427E+03    0.23825E-02   -0.94237E-03 11840   0.750E-01    0.277E-01
DAV:   4    -0.191595576863E+03    0.81456E-03   -0.16963E-03 10880   0.273E-01    0.106E-01
DAV:   5    -0.191595437097E+03    0.13977E-03   -0.66721E-04 10480   0.115E-01    0.798E-02
DAV:   6    -0.191595677495E+03   -0.24040E-03   -0.84042E-04  9920   0.202E-01    0.177E-01
DAV:   7    -0.191595344088E+03    0.33341E-03   -0.52190E-04  8400   0.167E-01    0.230E-02
DAV:   8    -0.191595353550E+03   -0.94620E-05   -0.37566E-05  5600   0.343E-02
  45 F= -.19159535E+03 E0= -.19150705E+03  d E =-.248498E-01
       N       E                     dE             d eps       ncg     rms          rms(c)
DAV:   1    -0.191615824832E+03   -0.20481E-01   -0.91632E-01  8160   0.205E+00    0.232E-01
DAV:   2    -0.191619461061E+03   -0.36362E-02   -0.29664E-02 13520   0.702E-01    0.494E-01
DAV:   3    -0.191617448215E+03    0.20128E-02   -0.78966E-03 12280   0.653E-01    0.249E-01
DAV:   4    -0.191616922925E+03    0.52529E-03   -0.17327E-03  9880   0.256E-01    0.140E-01
DAV:   5    -0.191616869293E+03    0.53632E-04   -0.96727E-04 10080   0.233E-01
  46 F= -.19161687E+03 E0= -.19152947E+03  d E =-.215157E-01
       N       E                     dE             d eps       ncg     rms          rms(c)
DAV:   1    -0.191610987879E+03    0.59350E-02   -0.53827E-02  8160   0.531E-01    0.899E-02
DAV:   2    -0.191612453177E+03   -0.14653E-02   -0.43669E-03 12080   0.396E-01    0.350E-01
DAV:   3    -0.191611070867E+03    0.13823E-02   -0.23335E-03 10080   0.371E-01    0.806E-02
DAV:   4    -0.191611008471E+03    0.62396E-04   -0.21258E-04  6840   0.819E-02
  47 F= -.19161101E+03 E0= -.19152337E+03  d E =0.586082E-02
       N       E                     dE             d eps       ncg     rms          rms(c)
DAV:   1    -0.191639828253E+03   -0.28757E-01   -0.16886E+00  8160   0.278E+00    0.324E-01
DAV:   2    -0.191647765638E+03   -0.79374E-02   -0.59182E-02 12320   0.111E+00    0.703E-01
DAV:   3    -0.191642474654E+03    0.52910E-02   -0.13038E-02 11960   0.926E-01    0.263E-01
DAV:   4    -0.191642069814E+03    0.40484E-03   -0.25255E-03 10960   0.379E-01    0.218E-01
DAV:   5    -0.191641728586E+03    0.34123E-03   -0.17661E-03 10200   0.346E-01    0.165E-01
DAV:   6    -0.191641546400E+03    0.18219E-03   -0.85243E-04 11320   0.196E-01    0.891E-02
DAV:   7    -0.191641527611E+03    0.18789E-04   -0.52259E-04  8640   0.152E-01
  48 F= -.19164153E+03 E0= -.19155577E+03  d E =-.305191E-01
       N       E                     dE             d eps       ncg     rms          rms(c)
DAV:   1    -0.191653932650E+03   -0.12386E-01   -0.26371E-01  8160   0.113E+00    0.191E-01
DAV:   2    -0.191656551930E+03   -0.26193E-02   -0.14206E-02 12600   0.653E-01    0.531E-01
DAV:   3    -0.191653849413E+03    0.27025E-02   -0.64353E-03 11400   0.579E-01    0.147E-01
DAV:   4    -0.191653709840E+03    0.13957E-03   -0.98231E-04 10120   0.200E-01    0.124E-01
DAV:   5    -0.191653651427E+03    0.58413E-04   -0.64722E-04 10840   0.213E-01
  49 F= -.19165365E+03 E0= -.19156868E+03  d E =-.121238E-01
       N       E                     dE             d eps       ncg     rms          rms(c)
DAV:   1    -0.191699957935E+03   -0.46248E-01   -0.41270E+00  8160   0.437E+00    0.497E-01
DAV:   2    -0.191708671762E+03   -0.87138E-02   -0.12337E-01 12480   0.117E+00    0.694E-01
DAV:   3    -0.191707931448E+03    0.74031E-03   -0.25918E-02 12040   0.122E+00    0.664E-01
DAV:   4    -0.191702956857E+03    0.49746E-02   -0.86765E-03 11440   0.681E-01    0.225E-01
DAV:   5    -0.191703414414E+03   -0.45756E-03   -0.46207E-03 11520   0.474E-01    0.344E-01
DAV:   6    -0.191702491977E+03    0.92244E-03   -0.38209E-03 11760   0.483E-01    0.179E-01
DAV:   7    -0.191702088947E+03    0.40303E-03   -0.93415E-04 10080   0.193E-01    0.632E-02
DAV:   8    -0.191702062333E+03    0.26614E-04   -0.18160E-04  8640   0.109E-01
  50 F= -.19170206E+03 E0= -.19161944E+03  d E =-.484109E-01
       N       E                     dE             d eps       ncg     rms          rms(c)
DAV:   1    -0.191718531527E+03   -0.16443E-01   -0.47531E-01  8160   0.148E+00    0.199E-01
DAV:   2    -0.191720072912E+03   -0.15414E-02   -0.18719E-02 12120   0.605E-01    0.325E-01
DAV:   3    -0.191719071162E+03    0.10017E-02   -0.36922E-03 12400   0.481E-01    0.156E-01
DAV:   4    -0.191718792877E+03    0.27828E-03   -0.97284E-04 10200   0.204E-01    0.110E-01
DAV:   5    -0.191718888449E+03   -0.95572E-04   -0.83696E-04  9840   0.216E-01
  51 F= -.19171889E+03 E0= -.19163728E+03  d E =-.168261E-01
       N       E                     dE             d eps       ncg     rms          rms(c)
DAV:   1    -0.191758612985E+03   -0.39820E-01   -0.32906E+00  8160   0.385E+00    0.385E-01
DAV:   2    -0.191765373054E+03   -0.67601E-02   -0.91444E-02 12040   0.929E-01    0.434E-01
DAV:   3    -0.191765661471E+03   -0.28842E-03   -0.12753E-02 11000   0.885E-01    0.489E-01
DAV:   4    -0.191763065431E+03    0.25960E-02   -0.44814E-03 11240   0.569E-01    0.191E-01
DAV:   5    -0.191763176583E+03   -0.11115E-03   -0.23712E-03 11480   0.370E-01    0.236E-01
DAV:   6    -0.191762823131E+03    0.35345E-03   -0.18031E-03 11120   0.323E-01    0.132E-01
DAV:   7    -0.191762627593E+03    0.19554E-03   -0.71015E-04 10200   0.172E-01    0.873E-02
DAV:   8    -0.191762554774E+03    0.72818E-04   -0.19291E-04  7600   0.110E-01
  52 F= -.19176255E+03 E0= -.19168368E+03  d E =-.436663E-01
       N       E                     dE             d eps       ncg     rms          rms(c)
DAV:   1    -0.191771424952E+03   -0.87974E-02   -0.13580E-01  8160   0.786E-01    0.839E-02
DAV:   2    -0.191771685967E+03   -0.26102E-03   -0.40167E-03 12280   0.192E-01    0.943E-02
DAV:   3    -0.191771750864E+03   -0.64897E-04   -0.73996E-04 11040   0.198E-01
  53 F= -.19177175E+03 E0= -.19169349E+03  d E =-.919609E-02
       N       E                     dE             d eps       ncg     rms          rms(c)
DAV:   1    -0.191777728781E+03   -0.60428E-02   -0.19829E-01  8160   0.982E-01    0.196E-01
DAV:   2    -0.191783901893E+03   -0.61731E-02   -0.19059E-02 12520   0.938E-01    0.740E-01
DAV:   3    -0.191777822740E+03    0.60792E-02   -0.83833E-03 10920   0.766E-01    0.923E-02
DAV:   4    -0.191777742737E+03    0.80003E-04   -0.46093E-04  9360   0.953E-02
  54 F= -.19177774E+03 E0= -.19169946E+03  d E =-.599187E-02
       N       E                     dE             d eps       ncg     rms          rms(c)
DAV:   1    -0.191765426959E+03    0.12396E-01   -0.10470E+00  8160   0.220E+00    0.398E-01
DAV:   2    -0.191793794431E+03   -0.28367E-01   -0.75278E-02 12160   0.200E+00    0.157E+00
DAV:   3    -0.191765053082E+03    0.28741E-01   -0.32737E-02 11200   0.156E+00    0.164E-01
DAV:   4    -0.191765453546E+03   -0.40046E-03   -0.22145E-03 11360   0.372E-01    0.253E-01
DAV:   5    -0.191764763374E+03    0.69017E-03   -0.16085E-03 10840   0.340E-01    0.124E-01
DAV:   6    -0.191764702605E+03    0.60769E-04   -0.70166E-04 10320   0.184E-01
  55 F= -.19176470E+03 E0= -.19168616E+03  d E =0.130401E-01
       N       E                     dE             d eps       ncg     rms          rms(c)
DAV:   1    -0.191811523686E+03   -0.46760E-01   -0.47204E+00  8160   0.463E+00    0.546E-01
DAV:   2    -0.191848765504E+03   -0.37242E-01   -0.17281E-01 13200   0.230E+00    0.180E+00
DAV:   3    -0.191817290267E+03    0.31475E-01   -0.65244E-02 12080   0.190E+00    0.334E-01
DAV:   4    -0.191816356490E+03    0.93378E-03   -0.56584E-03 11480   0.415E-01    0.286E-01
DAV:   5    -0.191815933017E+03    0.42347E-03   -0.40507E-03 12760   0.491E-01    0.284E-01
DAV:   6    -0.191815404511E+03    0.52851E-03   -0.26833E-03 11760   0.416E-01    0.171E-01
DAV:   7    -0.191815105379E+03    0.29913E-03   -0.11134E-03  9680   0.223E-01    0.102E-01
DAV:   8    -0.191814992649E+03    0.11273E-03   -0.28475E-04  9480   0.147E-01    0.458E-02
DAV:   9    -0.191814964335E+03    0.28314E-04   -0.63721E-05  6320   0.587E-02
  56 F= -.19181496E+03 E0= -.19173848E+03  d E =-.502617E-01
       N       E                     dE             d eps       ncg     rms          rms(c)
DAV:   1    -0.191855828920E+03   -0.40836E-01   -0.51468E+00  8160   0.483E+00    0.549E-01
DAV:   2    -0.191880200431E+03   -0.24372E-01   -0.19089E-01 12080   0.182E+00    0.114E+00
DAV:   3    -0.191866492353E+03    0.13708E-01   -0.39872E-02 12160   0.155E+00    0.487E-01
DAV:   4    -0.191864332684E+03    0.21597E-02   -0.64408E-03 11600   0.589E-01    0.281E-01
DAV:   5    -0.191863972919E+03    0.35977E-03   -0.36753E-03 11520   0.515E-01    0.266E-01
DAV:   6    -0.191863414401E+03    0.55852E-03   -0.21300E-03 11920   0.354E-01    0.122E-01
DAV:   7    -0.191863143437E+03    0.27096E-03   -0.77362E-04 10640   0.132E-01    0.467E-02
DAV:   8    -0.191863135146E+03    0.82911E-05   -0.13175E-04  7880   0.874E-02
  57 F= -.19186314E+03 E0= -.19178888E+03  d E =-.481708E-01
       N       E                     dE             d eps       ncg     rms          rms(c)
DAV:   1    -0.191879288969E+03   -0.16146E-01   -0.10076E+00  8160   0.215E+00    0.294E-01
DAV:   2    -0.191890224054E+03   -0.10935E-01   -0.42871E-02 12880   0.125E+00    0.100E+00
DAV:   3    -0.191879847980E+03    0.10376E-01   -0.18469E-02 11880   0.104E+00    0.151E-01
DAV:   4    -0.191879875175E+03   -0.27195E-04   -0.13644E-03 11160   0.263E-01    0.173E-01
DAV:   5    -0.191879602959E+03    0.27222E-03   -0.92553E-04 11400   0.275E-01    0.115E-01
DAV:   6    -0.191879514714E+03    0.88245E-04   -0.55053E-04 10160   0.159E-01
  58 F= -.19187951E+03 E0= -.19180524E+03  d E =-.163796E-01
       N       E                     dE             d eps       ncg     rms          rms(c)
DAV:   1    -0.191912515998E+03   -0.32913E-01   -0.23403E+00  8160   0.323E+00    0.318E-01
DAV:   2    -0.191917142653E+03   -0.46267E-02   -0.64976E-02 12280   0.754E-01    0.306E-01
DAV:   3    -0.191918247398E+03   -0.11047E-02   -0.88900E-03 12200   0.722E-01    0.469E-01
DAV:   4    -0.191915903945E+03    0.23435E-02   -0.39135E-03 11080   0.519E-01    0.135E-01
DAV:   5    -0.191915792835E+03    0.11111E-03   -0.11408E-03 10120   0.197E-01    0.119E-01
DAV:   6    -0.191915949153E+03   -0.15632E-03   -0.10539E-03 11600   0.268E-01    0.159E-01
DAV:   7    -0.191915633944E+03    0.31521E-03   -0.42900E-04  8320   0.182E-01    0.376E-02
DAV:   8    -0.191915631454E+03    0.24903E-05   -0.70405E-05  6000   0.646E-02
  59 F= -.19191563E+03 E0= -.19184239E+03  d E =-.361167E-01
       N       E                     dE             d eps       ncg     rms          rms(c)
DAV:   1    -0.191966692537E+03   -0.51059E-01   -0.74775E+00  8160   0.578E+00    0.588E-01
DAV:   2    -0.191983773053E+03   -0.17081E-01   -0.21682E-01 12280   0.146E+00    0.687E-01
DAV:   3    -0.191984938279E+03   -0.11652E-02   -0.33153E-02 12200   0.142E+00    0.839E-01
DAV:   4    -0.191977577787E+03    0.73605E-02   -0.13094E-02 12120   0.912E-01    0.231E-01
DAV:   5    -0.191976799636E+03    0.77815E-03   -0.32744E-03 10320   0.241E-01    0.127E-01
DAV:   6    -0.191976768388E+03    0.31247E-04   -0.16348E-03 11600   0.157E-01    0.105E-01
DAV:   7    -0.191976625170E+03    0.14322E-03   -0.41962E-04 10560   0.161E-01    0.690E-02
DAV:   8    -0.191976574065E+03    0.51104E-04   -0.13624E-04  7720   0.945E-02
  60 F= -.19197657E+03 E0= -.19190471E+03  d E =-.609426E-01
       N       E                     dE             d eps       ncg     rms          rms(c)
DAV:   1    -0.192004460372E+03   -0.27835E-01   -0.28183E+00  8160   0.356E+00    0.410E-01
DAV:   2    -0.192018841007E+03   -0.14381E-01   -0.10119E-01 12840   0.141E+00    0.906E-01
DAV:   3    -0.192010385298E+03    0.84557E-02   -0.18598E-02 12440   0.122E+00    0.323E-01
DAV:   4    -0.192009026815E+03    0.13585E-02   -0.21667E-03 11680   0.318E-01    0.108E-01
DAV:   5    -0.192009152351E+03   -0.12554E-03   -0.12171E-03 11720   0.160E-01    0.121E-01
DAV:   6    -0.192009131650E+03    0.20701E-04   -0.97266E-04 11120   0.239E-01
  61 F= -.19200913E+03 E0= -.19193833E+03  d E =-.325576E-01
       N       E                     dE             d eps       ncg     rms          rms(c)
DAV:   1    -0.192029083599E+03   -0.19931E-01   -0.11761E+00  8160   0.231E+00    0.265E-01
DAV:   2    -0.192033437141E+03   -0.43535E-02   -0.39715E-02 12880   0.799E-01    0.470E-01
DAV:   3    -0.192031632848E+03    0.18043E-02   -0.66814E-03 12200   0.726E-01    0.263E-01
DAV:   4    -0.192030827518E+03    0.80533E-03   -0.12753E-03 11120   0.273E-01    0.838E-02
DAV:   5    -0.192030933405E+03   -0.10589E-03   -0.59733E-04 10880   0.160E-01    0.118E-01
DAV:   6    -0.192030868255E+03    0.65151E-04   -0.60318E-04 10560   0.200E-01
  62 F= -.19203087E+03 E0= -.19196105E+03  d E =-.217366E-01
       N       E                     dE             d eps       ncg     rms          rms(c)
DAV:   1    -0.192070559222E+03   -0.39626E-01   -0.50771E+00  8160   0.477E+00    0.457E-01
DAV:   2    -0.192077759738E+03   -0.72005E-02   -0.12190E-01 12360   0.973E-01    0.292E-01
DAV:   3    -0.192077725066E+03    0.34672E-04   -0.89759E-03 11320   0.524E-01    0.348E-01
DAV:   4    -0.192076641667E+03    0.10834E-02   -0.43056E-03 12560   0.564E-01    0.268E-01
DAV:   5    -0.192076031147E+03    0.61052E-03   -0.28534E-03 12440   0.376E-01    0.151E-01
DAV:   6    -0.192076205209E+03   -0.17406E-03   -0.15421E-03 11480   0.303E-01    0.197E-01
DAV:   7    -0.192075749958E+03    0.45525E-03   -0.61267E-04  9480   0.235E-01    0.418E-02
DAV:   8    -0.192075731910E+03    0.18048E-04   -0.62417E-05  6160   0.464E-02
  63 F= -.19207573E+03 E0= -.19200727E+03  d E =-.448637E-01
       N       E                     dE             d eps       ncg     rms          rms(c)
DAV:   1    -0.192117611787E+03   -0.41862E-01   -0.27758E+01  8160   0.112E+01    0.113E+00
DAV:   2    -0.192179354989E+03   -0.61743E-01   -0.81109E-01 12280   0.275E+00    0.118E+00
DAV:   3    -0.192188904002E+03   -0.95490E-02   -0.99799E-02 12400   0.275E+00    0.152E+00
DAV:   4    -0.192160574924E+03    0.28329E-01   -0.36316E-02 12400   0.171E+00    0.397E-01
DAV:   5    -0.192159778007E+03    0.79692E-03   -0.11311E-02 11440   0.576E-01    0.383E-01
DAV:   6    -0.192160549070E+03   -0.77106E-03   -0.10147E-02 12960   0.820E-01    0.462E-01
DAV:   7    -0.192157794152E+03    0.27549E-02   -0.45464E-03 12240   0.550E-01    0.118E-01
DAV:   8    -0.192157711687E+03    0.82466E-04   -0.70861E-04 10920   0.191E-01
  64 F= -.19215771E+03 E0= -.19209237E+03  d E =-.819798E-01
       N       E                     dE             d eps       ncg     rms          rms(c)
DAV:   1    -0.192169260206E+03   -0.11466E-01   -0.12376E+00  8160   0.235E+00    0.272E-01
DAV:   2    -0.192175957703E+03   -0.66975E-02   -0.46195E-02 13120   0.103E+00    0.611E-01
DAV:   3    -0.192172024163E+03    0.39335E-02   -0.93631E-03 12360   0.846E-01    0.223E-01
DAV:   4    -0.192171471806E+03    0.55236E-03   -0.12398E-03 10560   0.247E-01    0.969E-02
DAV:   5    -0.192171528370E+03   -0.56564E-04   -0.61191E-04 11480   0.195E-01
  65 F= -.19217153E+03 E0= -.19210663E+03  d E =-.138167E-01
       N       E                     dE             d eps       ncg     rms          rms(c)
DAV:   1    -0.192187931423E+03   -0.16460E-01   -0.43541E+00  8160   0.444E+00    0.481E-01
DAV:   2    -0.192200351863E+03   -0.12420E-01   -0.13431E-01 12360   0.128E+00    0.661E-01
DAV:   3    -0.192197982774E+03    0.23691E-02   -0.19035E-02 12040   0.122E+00    0.539E-01
DAV:   4    -0.192194813401E+03    0.31694E-02   -0.59947E-03 12520   0.640E-01    0.211E-01
DAV:   5    -0.192194819810E+03   -0.64089E-05   -0.29417E-03 12200   0.416E-01    0.236E-01
DAV:   6    -0.192194533819E+03    0.28599E-03   -0.19145E-03 12320   0.366E-01    0.149E-01
DAV:   7    -0.192194217999E+03    0.31582E-03   -0.70682E-04 10600   0.167E-01    0.575E-02
DAV:   8    -0.192194195565E+03    0.22434E-04   -0.11308E-04  7960   0.973E-02
  66 F= -.19219420E+03 E0= -.19213028E+03  d E =-.226672E-01
       N       E                     dE             d eps       ncg     rms          rms(c)
DAV:   1    -0.192202395334E+03   -0.81773E-02   -0.12502E+00  8160   0.240E+00    0.264E-01
DAV:   2    -0.192204941355E+03   -0.25460E-02   -0.39703E-02 12640   0.600E-01    0.244E-01
DAV:   3    -0.192205411990E+03   -0.47064E-03   -0.50589E-03 12440   0.578E-01    0.340E-01
DAV:   4    -0.192204101688E+03    0.13103E-02   -0.22327E-03 11640   0.428E-01    0.117E-01
DAV:   5    -0.192203946797E+03    0.15489E-03   -0.75858E-04 10480   0.145E-01    0.734E-02
DAV:   6    -0.192204025272E+03   -0.78475E-04   -0.42709E-04  9800   0.171E-01
  67 F= -.19220403E+03 E0= -.19214019E+03  d E =-.982971E-02
       N       E                     dE             d eps       ncg     rms          rms(c)
DAV:   1    -0.192207717841E+03   -0.37710E-02   -0.24636E-01  8160   0.106E+00    0.131E-01
DAV:   2    -0.192208839932E+03   -0.11221E-02   -0.96042E-03 11280   0.418E-01    0.242E-01
DAV:   3    -0.192208242260E+03    0.59767E-03   -0.17438E-03 12560   0.372E-01    0.122E-01
DAV:   4    -0.192208110129E+03    0.13213E-03   -0.37170E-04  8720   0.158E-01    0.684E-02
DAV:   5    -0.192208094615E+03    0.15514E-04   -0.22902E-04  7920   0.125E-01
  68 F= -.19220809E+03 E0= -.19214449E+03  d E =-.406934E-02
       N       E                     dE             d eps       ncg     rms          rms(c)
DAV:   1    -0.192212951863E+03   -0.48417E-02   -0.54478E-01  8160   0.156E+00    0.170E-01
DAV:   2    -0.192215012519E+03   -0.20607E-02   -0.15337E-02 12360   0.555E-01    0.340E-01
DAV:   3    -0.192213821208E+03    0.11913E-02   -0.28334E-03 12520   0.488E-01    0.145E-01
DAV:   4    -0.192213645104E+03    0.17610E-03   -0.53609E-04  9240   0.179E-01    0.907E-02
DAV:   5    -0.192213615110E+03    0.29994E-04   -0.34730E-04  9480   0.167E-01
  69 F= -.19221362E+03 E0= -.19215028E+03  d E =-.552049E-02
       N       E                     dE             d eps       ncg     rms          rms(c)
DAV:   1    -0.192218873317E+03   -0.52282E-02   -0.15860E+00  8160   0.268E+00    0.277E-01
DAV:   2    -0.192223386761E+03   -0.45134E-02   -0.50711E-02 11760   0.756E-01    0.369E-01
DAV:   3    -0.192223013710E+03    0.37305E-03   -0.67210E-03 12480   0.709E-01    0.340E-01
DAV:   4    -0.192221647038E+03    0.13667E-02   -0.19400E-03 12080   0.370E-01    0.990E-02
DAV:   5    -0.192221641535E+03    0.55025E-05   -0.80306E-04 10520   0.153E-01
  70 F= -.19222164E+03 E0= -.19215845E+03  d E =-.802643E-02
       N       E                     dE             d eps       ncg     rms          rms(c)
DAV:   1    -0.192221789603E+03   -0.14257E-03   -0.43908E+00  8160   0.445E+00    0.469E-01
DAV:   2    -0.192236919360E+03   -0.15130E-01   -0.14175E-01 11440   0.138E+00    0.747E-01
DAV:   3    -0.192231991926E+03    0.49274E-02   -0.20151E-02 12160   0.124E+00    0.468E-01
DAV:   4    -0.192229638653E+03    0.23533E-02   -0.48480E-03 12640   0.555E-01    0.216E-01
DAV:   5    -0.192229589603E+03    0.49050E-04   -0.26318E-03 12080   0.426E-01    0.231E-01
DAV:   6    -0.192229269806E+03    0.31980E-03   -0.17747E-03 12320   0.330E-01    0.131E-01
DAV:   7    -0.192229033511E+03    0.23630E-03   -0.73531E-04 10160   0.167E-01    0.738E-02
DAV:   8    -0.192228976982E+03    0.56528E-04   -0.12337E-04  7600   0.103E-01
  71 F= -.19222898E+03 E0= -.19216597E+03  d E =-.733545E-02
       N       E                     dE             d eps       ncg     rms          rms(c)
DAV:   1    -0.192229511932E+03   -0.47842E-03   -0.44138E-02  8160   0.444E-01    0.625E-02
DAV:   2    -0.192229978502E+03   -0.46657E-03   -0.20916E-03 12840   0.275E-01    0.184E-01
DAV:   3    -0.192229581145E+03    0.39736E-03   -0.54435E-04 10000   0.213E-01    0.327E-02
DAV:   4    -0.192229586720E+03   -0.55751E-05   -0.37929E-05  6080   0.564E-02
  72 F= -.19222959E+03 E0= -.19216666E+03  d E =-.609737E-03
