   27   27  100    1
  0.9710400E+02  0.1002848E-08  0.1002848E-08  0.3000000E-08  0.5000000E-15
  1.000000000000000E-004
  CAR 
 unknown system                          
    159     34    120
 
  0.0000000E+00  0.0000000E+00  0.0000000E+00  0.1562500E-01
    1      -17.830310   1.000000
    2      -16.639689   1.000000
    3      -16.606503   1.000000
    4      -16.557862   1.000000
    5      -16.469311   1.000000
    6      -16.423420   1.000000
    7      -16.391117   1.000000
    8      -16.348618   1.000000
    9      -16.070101   1.000000
   10      -16.065387   1.000000
   11      -16.039816   1.000000
   12      -15.996903   1.000000
   13      -15.961401   1.000000
   14      -15.889811   1.000000
   15      -15.544510   1.000000
   16      -15.476630   1.000000
   17      -15.422558   1.000000
   18      -15.391258   1.000000
   19       -9.376646   1.000000
   20       -8.914625   1.000000
   21       -8.836541   1.000000
   22       -8.804233   1.000000
   23       -8.763902   1.000000
   24       -8.649232   1.000000
   25       -8.515983   1.000000
   26       -8.513276   1.000000
   27       -8.482443   1.000000
   28       -8.428008   1.000000
   29       -8.401854   1.000000
   30       -8.278319   1.000000
   31       -8.266630   1.000000
   32       -8.211912   1.000000
   33       -8.186323   1.000000
   34       -8.062244   1.000000
   35       -7.855900   1.000000
   36       -7.803803   1.000000
   37       -7.765281   1.000000
   38       -7.608015   1.000000
   39       -7.514406   1.000000
   40       -7.452701   1.000000
   41       -7.308584   1.000000
   42       -7.272648   1.000000
   43       -7.139300   1.000000
   44       -6.853777   1.000000
   45       -6.751808   1.000000
   46       -6.736037   1.000000
   47       -6.713648   1.000000
   48       -6.629020   1.000000
   49       -6.599987   1.000000
   50       -6.574762   1.000000
   51       -6.525430   1.000000
   52       -6.422982   1.000000
   53       -6.310860   1.000000
   54       -6.273799   1.000000
   55       -6.175516   1.000000
   56       -6.158507   1.000000
   57       -6.078284   1.000000
   58       -5.844475   1.000000
   59       -5.694146   1.000000
   60       -5.626961   1.000000
   61       -5.613082   1.000000
   62       -5.352246   1.000000
   63       -5.268181   1.000000
   64       -5.083774   1.000000
   65       -4.929654   1.000000
   66       -4.813486   1.000000
   67       -4.809744   1.000000
   68       -4.733036   1.000000
   69       -4.662713   1.000000
   70       -4.640317   1.000000
   71       -4.570027   1.000000
   72       -4.506697   1.000000
   73       -4.468783   1.000000
   74       -4.332466   1.000000
   75       -4.156315   1.000000
   76       -4.101817   1.000000
   77       -3.538823   0.999812
   78       -3.510471   0.999604
   79       -3.467463   0.998861
   80       -3.052278   0.545964
   81       -3.014948   0.440977
   82       -2.715681   0.011768
   83       -2.652493   0.003350
   84       -2.520858   0.000135
   85       -2.448557   0.000016
   86       -2.402602   0.000004
   87       -2.378298   0.000002
   88       -2.117134   0.000000
   89       -2.005071   0.000000
   90       -1.966018   0.000000
   91       -1.868219   0.000000
   92       -1.765753   0.000000
   93       -1.624191   0.000000
   94       -1.526960   0.000000
   95       -1.508293   0.000000
   96       -1.446022   0.000000
   97       -1.298684   0.000000
   98       -0.963578   0.000000
   99       -0.740620   0.000000
  100       -0.460910   0.000000
  101       -0.412953   0.000000
  102       -0.368610   0.000000
  103       -0.215262   0.000000
  104       -0.067051   0.000000
  105       -0.042157   0.000000
  106        0.191932   0.000000
  107        0.215829   0.000000
  108        0.289958   0.000000
  109        0.305079   0.000000
  110        0.339406   0.000000
  111        0.430467   0.000000
  112        0.751332   0.000000
  113        0.788569   0.000000
  114        0.866975   0.000000
  115        0.879135   0.000000
  116        0.925632   0.000000
  117        0.982896   0.000000
  118        1.682552   0.000000
  119        1.836173   0.000000
  120        2.193703   0.000000
 
  0.1250000E+00  0.2775558E-16  0.0000000E+00  0.3125000E-01
    1      -17.804941   1.000000
    2      -16.746873   1.000000
    3      -16.633662   1.000000
    4      -16.584666   1.000000
    5      -16.519265   1.000000
    6      -16.375939   1.000000
    7      -16.336967   1.000000
    8      -16.291032   1.000000
    9      -16.136891   1.000000
   10      -16.091419   1.000000
   11      -16.030961   1.000000
   12      -15.934240   1.000000
   13      -15.910334   1.000000
   14      -15.834168   1.000000
   15      -15.564708   1.000000
   16      -15.494620   1.000000
   17      -15.431953   1.000000
   18      -15.388969   1.000000
   19       -9.371251   1.000000
   20       -9.119439   1.000000
   21       -8.985279   1.000000
   22       -8.847351   1.000000
   23       -8.776221   1.000000
   24       -8.668106   1.000000
   25       -8.568450   1.000000
   26       -8.541288   1.000000
   27       -8.471594   1.000000
   28       -8.401961   1.000000
   29       -8.360564   1.000000
   30       -8.250111   1.000000
   31       -8.195040   1.000000
   32       -8.150561   1.000000
   33       -8.056196   1.000000
   34       -7.892014   1.000000
   35       -7.832007   1.000000
   36       -7.743815   1.000000
   37       -7.683042   1.000000
   38       -7.589214   1.000000
   39       -7.525903   1.000000
   40       -7.478622   1.000000
   41       -7.293720   1.000000
   42       -7.228053   1.000000
   43       -7.143607   1.000000
   44       -6.898910   1.000000
   45       -6.853470   1.000000
   46       -6.800203   1.000000
   47       -6.756385   1.000000
   48       -6.668453   1.000000
   49       -6.576554   1.000000
   50       -6.469889   1.000000
   51       -6.437241   1.000000
   52       -6.395104   1.000000
   53       -6.356732   1.000000
   54       -6.311353   1.000000
   55       -6.212445   1.000000
   56       -6.153990   1.000000
   57       -6.105520   1.000000
   58       -5.808373   1.000000
   59       -5.697773   1.000000
   60       -5.616806   1.000000
   61       -5.500721   1.000000
   62       -5.334337   1.000000
   63       -5.222622   1.000000
   64       -5.132345   1.000000
   65       -5.046806   1.000000
   66       -5.035401   1.000000
   67       -4.941184   1.000000
   68       -4.890941   1.000000
   69       -4.676521   1.000000
   70       -4.654155   1.000000
   71       -4.595884   1.000000
   72       -4.359021   1.000000
   73       -4.314822   1.000000
   74       -4.183253   1.000000
   75       -4.029972   1.000000
   76       -3.949765   1.000000
   77       -3.704394   0.999999
   78       -3.651200   0.999993
   79       -3.526940   0.999742
   80       -2.953537   0.280035
   81       -2.897975   0.164627
   82       -2.733807   0.016321
   83       -2.697051   0.008279
   84       -2.529550   0.000171
   85       -2.448156   0.000016
   86       -2.419089   0.000006
   87       -2.384495   0.000002
   88       -2.151895   0.000000
   89       -2.121975   0.000000
   90       -2.000846   0.000000
   91       -1.811707   0.000000
   92       -1.698873   0.000000
   93       -1.595139   0.000000
   94       -1.492379   0.000000
   95       -1.462899   0.000000
   96       -1.390565   0.000000
   97       -1.287897   0.000000
   98       -0.943697   0.000000
   99       -0.730270   0.000000
  100       -0.534980   0.000000
  101       -0.490936   0.000000
  102       -0.412428   0.000000
  103       -0.263099   0.000000
  104       -0.115717   0.000000
  105       -0.089070   0.000000
  106        0.029379   0.000000
  107        0.088796   0.000000
  108        0.234529   0.000000
  109        0.277576   0.000000
  110        0.360040   0.000000
  111        0.443812   0.000000
  112        0.693687   0.000000
  113        0.867619   0.000000
  114        0.886574   0.000000
  115        0.956788   0.000000
  116        1.035758   0.000000
  117        1.088223   0.000000
  118        1.724836   0.000000
  119        1.876027   0.000000
  120        2.228879   0.000000
 
  0.2500000E+00  0.5551115E-16  0.0000000E+00  0.3125000E-01
    1      -17.730527   1.000000
    2      -16.966817   1.000000
    3      -16.686271   1.000000
    4      -16.587985   1.000000
    5      -16.556690   1.000000
    6      -16.342024   1.000000
    7      -16.281639   1.000000
    8      -16.246447   1.000000
    9      -16.148493   1.000000
   10      -16.109188   1.000000
   11      -16.027921   1.000000
   12      -15.862989   1.000000
   13      -15.828803   1.000000
   14      -15.707418   1.000000
   15      -15.611039   1.000000
   16      -15.535749   1.000000
   17      -15.451662   1.000000
   18      -15.396696   1.000000
   19       -9.520422   1.000000
   20       -9.272428   1.000000
   21       -9.115378   1.000000
   22       -8.956595   1.000000
   23       -8.886408   1.000000
   24       -8.800559   1.000000
   25       -8.515630   1.000000
   26       -8.513064   1.000000
   27       -8.426547   1.000000
   28       -8.379903   1.000000
   29       -8.322732   1.000000
   30       -8.237434   1.000000
   31       -8.114240   1.000000
   32       -8.066634   1.000000
   33       -7.927823   1.000000
   34       -7.816114   1.000000
   35       -7.702871   1.000000
   36       -7.634685   1.000000
   37       -7.580437   1.000000
   38       -7.522427   1.000000
   39       -7.454334   1.000000
   40       -7.389884   1.000000
   41       -7.227599   1.000000
   42       -7.157084   1.000000
   43       -7.083656   1.000000
   44       -7.012118   1.000000
   45       -6.936888   1.000000
   46       -6.794269   1.000000
   47       -6.757837   1.000000
   48       -6.703897   1.000000
   49       -6.612280   1.000000
   50       -6.523233   1.000000
   51       -6.497058   1.000000
   52       -6.350187   1.000000
   53       -6.279592   1.000000
   54       -6.251687   1.000000
   55       -6.183723   1.000000
   56       -6.124797   1.000000
   57       -6.086695   1.000000
   58       -5.818873   1.000000
   59       -5.621531   1.000000
   60       -5.609022   1.000000
   61       -5.547635   1.000000
   62       -5.474439   1.000000
   63       -5.428102   1.000000
   64       -5.300300   1.000000
   65       -5.233061   1.000000
   66       -5.166444   1.000000
   67       -5.012684   1.000000
   68       -4.834531   1.000000
   69       -4.678023   1.000000
   70       -4.632079   1.000000
   71       -4.563592   1.000000
   72       -4.267818   1.000000
   73       -4.163903   1.000000
   74       -4.083856   1.000000
   75       -3.971098   1.000000
   76       -3.902777   1.000000
   77       -3.793959   1.000000
   78       -3.662562   0.999995
   79       -3.509928   0.999598
   80       -2.890650   0.152113
   81       -2.849484   0.093668
   82       -2.757097   0.024318
   83       -2.667392   0.004579
   84       -2.581234   0.000652
   85       -2.469764   0.000031
   86       -2.431986   0.000010
   87       -2.387745   0.000002
   88       -2.235662   0.000000
   89       -2.208644   0.000000
   90       -2.015700   0.000000
   91       -1.799665   0.000000
   92       -1.698237   0.000000
   93       -1.487388   0.000000
   94       -1.428267   0.000000
   95       -1.358424   0.000000
   96       -1.276955   0.000000
   97       -1.231575   0.000000
   98       -0.894485   0.000000
   99       -0.716681   0.000000
  100       -0.685277   0.000000
  101       -0.614713   0.000000
  102       -0.518514   0.000000
  103       -0.422083   0.000000
  104       -0.313092   0.000000
  105       -0.212679   0.000000
  106       -0.179683   0.000000
  107       -0.053959   0.000000
  108        0.109266   0.000000
  109        0.201070   0.000000
  110        0.305746   0.000000
  111        0.466902   0.000000
  112        0.658801   0.000000
  113        0.893476   0.000000
  114        0.992016   0.000000
  115        1.090336   0.000000
  116        1.205992   0.000000
  117        1.340189   0.000000
  118        1.844114   0.000000
  119        1.990501   0.000000
  120        2.333411   0.000000
 
  0.3750000E+00  0.0000000E+00  0.0000000E+00  0.3125000E-01
    1      -17.615245   1.000000
    2      -17.184789   1.000000
    3      -16.726388   1.000000
    4      -16.621898   1.000000
    5      -16.523869   1.000000
    6      -16.382254   1.000000
    7      -16.250337   1.000000
    8      -16.221011   1.000000
    9      -16.157829   1.000000
   10      -16.074087   1.000000
   11      -15.976279   1.000000
   12      -15.803550   1.000000
   13      -15.767031   1.000000
   14      -15.673701   1.000000
   15      -15.651855   1.000000
   16      -15.517548   1.000000
   17      -15.478498   1.000000
   18      -15.418026   1.000000
   19       -9.740018   1.000000
   20       -9.335778   1.000000
   21       -9.141819   1.000000
   22       -9.023947   1.000000
   23       -8.941496   1.000000
   24       -8.878623   1.000000
   25       -8.496257   1.000000
   26       -8.467221   1.000000
   27       -8.424648   1.000000
   28       -8.342291   1.000000
   29       -8.297548   1.000000
   30       -8.233736   1.000000
   31       -8.086051   1.000000
   32       -7.993797   1.000000
   33       -7.954312   1.000000
   34       -7.769008   1.000000
   35       -7.702519   1.000000
   36       -7.634091   1.000000
   37       -7.510300   1.000000
   38       -7.479940   1.000000
   39       -7.369451   1.000000
   40       -7.268964   1.000000
   41       -7.199250   1.000000
   42       -7.070237   1.000000
   43       -7.026331   1.000000
   44       -6.967275   1.000000
   45       -6.863149   1.000000
   46       -6.751648   1.000000
   47       -6.727559   1.000000
   48       -6.685508   1.000000
   49       -6.600987   1.000000
   50       -6.549609   1.000000
   51       -6.363194   1.000000
   52       -6.304722   1.000000
   53       -6.248848   1.000000
   54       -6.224261   1.000000
   55       -6.116502   1.000000
   56       -6.008814   1.000000
   57       -5.994186   1.000000
   58       -5.927716   1.000000
   59       -5.855178   1.000000
   60       -5.754569   1.000000
   61       -5.728151   1.000000
   62       -5.698491   1.000000
   63       -5.591775   1.000000
   64       -5.542835   1.000000
   65       -5.211107   1.000000
   66       -5.059559   1.000000
   67       -4.888995   1.000000
   68       -4.814857   1.000000
   69       -4.712734   1.000000
   70       -4.616879   1.000000
   71       -4.563430   1.000000
   72       -4.529878   1.000000
   73       -4.159900   1.000000
   74       -4.101397   1.000000
   75       -3.922193   1.000000
   76       -3.820071   1.000000
   77       -3.640732   0.999991
   78       -3.453424   0.998421
   79       -3.418882   0.996613
   80       -3.008151   0.422087
   81       -2.905744   0.178608
   82       -2.757472   0.024469
   83       -2.638016   0.002448
   84       -2.581336   0.000653
   85       -2.454639   0.000020
   86       -2.431739   0.000010
   87       -2.399596   0.000003
   88       -2.277030   0.000000
   89       -2.233721   0.000000
   90       -2.009034   0.000000
   91       -1.790017   0.000000
   92       -1.699551   0.000000
   93       -1.481872   0.000000
   94       -1.392896   0.000000
   95       -1.272896   0.000000
   96       -1.219636   0.000000
   97       -1.096657   0.000000
   98       -0.845074   0.000000
   99       -0.798809   0.000000
  100       -0.705403   0.000000
  101       -0.696021   0.000000
  102       -0.622467   0.000000
  103       -0.574518   0.000000
  104       -0.507550   0.000000
  105       -0.405775   0.000000
  106       -0.342032   0.000000
  107       -0.114112   0.000000
  108        0.011671   0.000000
  109        0.134282   0.000000
  110        0.211377   0.000000
  111        0.513622   0.000000
  112        0.639992   0.000000
  113        0.914389   0.000000
  114        1.067738   0.000000
  115        1.203898   0.000000
  116        1.350655   0.000000
  117        1.523867   0.000000
  118        2.026243   0.000000
  119        2.167990   0.000000
  120        2.502940   0.000000
 
  0.5000000E+00  0.1110223E-15  0.0000000E+00  0.1562500E-01
    1      -17.520563   1.000000
    2      -17.315520   1.000000
    3      -16.740663   1.000000
    4      -16.635032   1.000000
    5      -16.494690   1.000000
    6      -16.418307   1.000000
    7      -16.235227   1.000000
    8      -16.222388   1.000000
    9      -16.159507   1.000000
   10      -16.051024   1.000000
   11      -15.941199   1.000000
   12      -15.782420   1.000000
   13      -15.733078   1.000000
   14      -15.691110   1.000000
   15      -15.684678   1.000000
   16      -15.497886   1.000000
   17      -15.463960   1.000000
   18      -15.442523   1.000000
   19       -9.821932   1.000000
   20       -9.371144   1.000000
   21       -9.159839   1.000000
   22       -9.039929   1.000000
   23       -8.917937   1.000000
   24       -8.890886   1.000000
   25       -8.588008   1.000000
   26       -8.444528   1.000000
   27       -8.407437   1.000000
   28       -8.312051   1.000000
   29       -8.278953   1.000000
   30       -8.170984   1.000000
   31       -8.088734   1.000000
   32       -7.989975   1.000000
   33       -7.935121   1.000000
   34       -7.804856   1.000000
   35       -7.738824   1.000000
   36       -7.644599   1.000000
   37       -7.537628   1.000000
   38       -7.443266   1.000000
   39       -7.378098   1.000000
   40       -7.251772   1.000000
   41       -7.168105   1.000000
   42       -7.031441   1.000000
   43       -6.934687   1.000000
   44       -6.875524   1.000000
   45       -6.833919   1.000000
   46       -6.734424   1.000000
   47       -6.675033   1.000000
   48       -6.632521   1.000000
   49       -6.557604   1.000000
   50       -6.533383   1.000000
   51       -6.410028   1.000000
   52       -6.302306   1.000000
   53       -6.231621   1.000000
   54       -6.126816   1.000000
   55       -6.110890   1.000000
   56       -6.059168   1.000000
   57       -6.003343   1.000000
   58       -5.967308   1.000000
   59       -5.839906   1.000000
   60       -5.837480   1.000000
   61       -5.789115   1.000000
   62       -5.735037   1.000000
   63       -5.640721   1.000000
   64       -5.585952   1.000000
   65       -5.346102   1.000000
   66       -5.072287   1.000000
   67       -4.933952   1.000000
   68       -4.835731   1.000000
   69       -4.735261   1.000000
   70       -4.567240   1.000000
   71       -4.548033   1.000000
   72       -4.506123   1.000000
   73       -4.283876   1.000000
   74       -4.078977   1.000000
   75       -3.864645   1.000000
   76       -3.729407   1.000000
   77       -3.638398   0.999990
   78       -3.384155   0.993096
   79       -3.265358   0.947617
   80       -3.143853   0.777269
   81       -2.929749   0.226343
   82       -2.752048   0.022349
   83       -2.674626   0.005310
   84       -2.567539   0.000463
   85       -2.464184   0.000026
   86       -2.406760   0.000004
   87       -2.386494   0.000002
   88       -2.286888   0.000000
   89       -2.234546   0.000000
   90       -2.003155   0.000000
   91       -1.785002   0.000000
   92       -1.697723   0.000000
   93       -1.488910   0.000000
   94       -1.383046   0.000000
   95       -1.278627   0.000000
   96       -1.178115   0.000000
   97       -1.042322   0.000000
   98       -0.824660   0.000000
   99       -0.801837   0.000000
  100       -0.762416   0.000000
  101       -0.698590   0.000000
  102       -0.667110   0.000000
  103       -0.607554   0.000000
  104       -0.585242   0.000000
  105       -0.496429   0.000000
  106       -0.414535   0.000000
  107       -0.142177   0.000000
  108       -0.014367   0.000000
  109        0.105507   0.000000
  110        0.179011   0.000000
  111        0.529858   0.000000
  112        0.633218   0.000000
  113        0.923756   0.000000
  114        1.093652   0.000000
  115        1.247111   0.000000
  116        1.403182   0.000000
  117        1.587218   0.000000
  118        2.253479   0.000000
  119        2.269500   0.000000
  120        2.365187   0.000000
 
  0.0000000E+00  0.1250000E+00  0.0000000E+00  0.3125000E-01
    1      -17.804812   1.000000
    2      -16.742233   1.000000
    3      -16.626055   1.000000
    4      -16.598223   1.000000
    5      -16.513091   1.000000
    6      -16.375749   1.000000
    7      -16.355649   1.000000
    8      -16.292449   1.000000
    9      -16.135756   1.000000
   10      -16.076313   1.000000
   11      -16.006195   1.000000
   12      -15.951864   1.000000
   13      -15.937140   1.000000
   14      -15.813870   1.000000
   15      -15.566099   1.000000
   16      -15.491775   1.000000
   17      -15.435486   1.000000
   18      -15.388426   1.000000
   19       -9.367557   1.000000
   20       -9.123724   1.000000
   21       -8.954058   1.000000
   22       -8.856880   1.000000
   23       -8.765029   1.000000
   24       -8.733250   1.000000
   25       -8.558203   1.000000
   26       -8.530636   1.000000
   27       -8.476477   1.000000
   28       -8.404619   1.000000
   29       -8.373305   1.000000
   30       -8.255889   1.000000
   31       -8.202073   1.000000
   32       -8.139881   1.000000
   33       -8.035024   1.000000
   34       -7.899583   1.000000
   35       -7.799051   1.000000
   36       -7.754541   1.000000
   37       -7.669030   1.000000
   38       -7.599323   1.000000
   39       -7.541547   1.000000
   40       -7.452183   1.000000
   41       -7.285229   1.000000
   42       -7.241413   1.000000
   43       -7.150191   1.000000
   44       -6.922863   1.000000
   45       -6.818777   1.000000
   46       -6.802215   1.000000
   47       -6.734442   1.000000
   48       -6.635099   1.000000
   49       -6.627762   1.000000
   50       -6.568047   1.000000
   51       -6.419172   1.000000
   52       -6.383029   1.000000
   53       -6.340893   1.000000
   54       -6.283968   1.000000
   55       -6.209514   1.000000
   56       -6.174997   1.000000
   57       -6.070774   1.000000
   58       -5.785395   1.000000
   59       -5.726979   1.000000
   60       -5.613170   1.000000
   61       -5.503648   1.000000
   62       -5.326334   1.000000
   63       -5.231398   1.000000
   64       -5.104103   1.000000
   65       -5.036628   1.000000
   66       -5.013731   1.000000
   67       -4.961773   1.000000
   68       -4.901061   1.000000
   69       -4.698786   1.000000
   70       -4.672475   1.000000
   71       -4.618906   1.000000
   72       -4.356034   1.000000
   73       -4.270828   1.000000
   74       -4.216232   1.000000
   75       -4.029780   1.000000
   76       -3.918981   1.000000
   77       -3.743181   1.000000
   78       -3.634607   0.999988
   79       -3.509532   0.999594
   80       -2.956108   0.286188
   81       -2.896570   0.162177
   82       -2.745399   0.019964
   83       -2.679538   0.005864
   84       -2.570112   0.000494
   85       -2.446164   0.000015
   86       -2.401758   0.000004
   87       -2.362630   0.000001
   88       -2.177197   0.000000
   89       -2.107913   0.000000
   90       -1.978204   0.000000
   91       -1.852948   0.000000
   92       -1.714570   0.000000
   93       -1.606168   0.000000
   94       -1.485116   0.000000
   95       -1.457794   0.000000
   96       -1.383465   0.000000
   97       -1.267168   0.000000
   98       -0.948308   0.000000
   99       -0.729725   0.000000
  100       -0.541203   0.000000
  101       -0.454095   0.000000
  102       -0.427535   0.000000
  103       -0.254940   0.000000
  104       -0.133131   0.000000
  105       -0.085047   0.000000
  106        0.002335   0.000000
  107        0.126025   0.000000
  108        0.151543   0.000000
  109        0.290717   0.000000
  110        0.359148   0.000000
  111        0.550908   0.000000
  112        0.676762   0.000000
  113        0.796044   0.000000
  114        0.894662   0.000000
  115        0.947676   0.000000
  116        1.018928   0.000000
  117        1.144730   0.000000
  118        1.725528   0.000000
  119        1.875063   0.000000
  120        2.229105   0.000000
 
  0.1250000E+00  0.1250000E+00  0.0000000E+00  0.3125000E-01
    1      -17.755664   1.000000
    2      -16.842869   1.000000
    3      -16.795151   1.000000
    4      -16.582314   1.000000
    5      -16.442286   1.000000
    6      -16.381598   1.000000
    7      -16.323893   1.000000
    8      -16.244731   1.000000
    9      -16.156913   1.000000
   10      -16.108719   1.000000
   11      -16.000716   1.000000
   12      -15.938709   1.000000
   13      -15.808510   1.000000
   14      -15.740819   1.000000
   15      -15.600243   1.000000
   16      -15.521833   1.000000
   17      -15.458734   1.000000
   18      -15.384018   1.000000
   19       -9.404265   1.000000
   20       -9.309938   1.000000
   21       -9.118683   1.000000
   22       -8.990025   1.000000
   23       -8.784013   1.000000
   24       -8.724660   1.000000
   25       -8.546241   1.000000
   26       -8.509114   1.000000
   27       -8.423235   1.000000
   28       -8.395271   1.000000
   29       -8.325886   1.000000
   30       -8.224158   1.000000
   31       -8.148971   1.000000
   32       -8.131716   1.000000
   33       -7.970743   1.000000
   34       -7.878883   1.000000
   35       -7.762180   1.000000
   36       -7.648394   1.000000
   37       -7.571757   1.000000
   38       -7.483104   1.000000
   39       -7.415253   1.000000
   40       -7.339605   1.000000
   41       -7.293405   1.000000
   42       -7.199637   1.000000
   43       -7.166944   1.000000
   44       -6.984607   1.000000
   45       -6.897967   1.000000
   46       -6.840336   1.000000
   47       -6.752762   1.000000
   48       -6.721162   1.000000
   49       -6.633005   1.000000
   50       -6.514387   1.000000
   51       -6.447854   1.000000
   52       -6.378211   1.000000
   53       -6.299783   1.000000
   54       -6.249981   1.000000
   55       -6.197236   1.000000
   56       -6.141783   1.000000
   57       -6.078888   1.000000
   58       -5.797540   1.000000
   59       -5.711623   1.000000
   60       -5.569216   1.000000
   61       -5.425693   1.000000
   62       -5.396005   1.000000
   63       -5.337771   1.000000
   64       -5.305926   1.000000
   65       -5.173179   1.000000
   66       -5.059917   1.000000
   67       -4.999208   1.000000
   68       -4.955232   1.000000
   69       -4.820020   1.000000
   70       -4.734316   1.000000
   71       -4.418865   1.000000
   72       -4.279391   1.000000
   73       -4.163721   1.000000
   74       -4.053064   1.000000
   75       -3.949178   1.000000
   76       -3.925553   1.000000
   77       -3.845288   1.000000
   78       -3.718550   0.999999
   79       -3.494018   0.999400
   80       -2.907068   0.181062
   81       -2.838090   0.080896
   82       -2.751126   0.022005
   83       -2.674138   0.005258
   84       -2.577612   0.000596
   85       -2.472067   0.000033
   86       -2.428932   0.000009
   87       -2.369393   0.000001
   88       -2.256448   0.000000
   89       -2.136636   0.000000
   90       -2.049126   0.000000
   91       -1.827580   0.000000
   92       -1.648235   0.000000
   93       -1.530685   0.000000
   94       -1.451120   0.000000
   95       -1.381067   0.000000
   96       -1.314045   0.000000
   97       -1.250148   0.000000
   98       -0.915241   0.000000
   99       -0.721021   0.000000
  100       -0.626185   0.000000
  101       -0.576898   0.000000
  102       -0.496884   0.000000
  103       -0.367782   0.000000
  104       -0.262414   0.000000
  105       -0.178652   0.000000
  106       -0.110152   0.000000
  107       -0.024921   0.000000
  108        0.087615   0.000000
  109        0.212475   0.000000
  110        0.351103   0.000000
  111        0.483464   0.000000
  112        0.711239   0.000000
  113        0.829887   0.000000
  114        0.960301   0.000000
  115        1.108379   0.000000
  116        1.170848   0.000000
  117        1.231681   0.000000
  118        1.806114   0.000000
  119        1.952571   0.000000
  120        2.298933   0.000000
 
  0.2500000E+00  0.1250000E+00  0.0000000E+00  0.3125000E-01
    1      -17.660535   1.000000
    2      -17.058041   1.000000
    3      -16.875144   1.000000
    4      -16.551064   1.000000
    5      -16.444489   1.000000
    6      -16.354925   1.000000
    7      -16.288478   1.000000
    8      -16.225934   1.000000
    9      -16.160303   1.000000
   10      -16.094781   1.000000
   11      -16.010443   1.000000
   12      -15.881468   1.000000
   13      -15.722283   1.000000
   14      -15.673554   1.000000
   15      -15.626094   1.000000
   16      -15.548562   1.000000
   17      -15.491481   1.000000
   18      -15.386024   1.000000
   19       -9.616709   1.000000
   20       -9.434693   1.000000
   21       -9.202813   1.000000
   22       -9.060525   1.000000
   23       -8.828208   1.000000
   24       -8.695653   1.000000
   25       -8.484146   1.000000
   26       -8.460979   1.000000
   27       -8.414901   1.000000
   28       -8.364343   1.000000
   29       -8.268354   1.000000
   30       -8.232295   1.000000
   31       -8.142251   1.000000
   32       -8.073051   1.000000
   33       -7.981006   1.000000
   34       -7.938518   1.000000
   35       -7.814609   1.000000
   36       -7.494285   1.000000
   37       -7.474904   1.000000
   38       -7.387813   1.000000
   39       -7.323524   1.000000
   40       -7.285344   1.000000
   41       -7.266116   1.000000
   42       -7.102309   1.000000
   43       -7.032431   1.000000
   44       -7.011310   1.000000
   45       -6.905817   1.000000
   46       -6.813735   1.000000
   47       -6.714074   1.000000