<?xml version="1.0" encoding="ISO-8859-1"?>
<modeling>
 <generator>
  <i name="program" type="string">vasp </i>
  <i name="version" type="string">5.4.1  </i>
  <i name="subversion" type="string">05Feb16 (build Jul 05 2020 17:13:04) complex                          parallel </i>
  <i name="platform" type="string">IFC91_ompi </i>
  <i name="date" type="string">2024 07 11 </i>
  <i name="time" type="string">12:14:35 </i>
 </generator>
 <incar>
  <i type="int" name="ISTART">     0</i>
  <i type="string" name="PREC">normal</i>
  <i type="string" name="ALGO"> Normal</i>
  <i type="int" name="ISPIN">     1</i>
  <i type="int" name="ICHARG">     2</i>
  <i type="int" name="IBRION">     1</i>
  <i type="int" name="NSW">   100</i>
  <i type="int" name="ISIF">     3</i>
  <i type="int" name="ISYM">     0</i>
  <i name="SYMPREC">      0.00000001</i>
  <i name="POTIM">      0.50000000</i>
  <i type="logical" name="LREAL"> F  </i>
  <i type="logical" name="LPLANE"> F  </i>
  <i type="int" name="ISMEAR">     0</i>
  <i type="logical" name="LWAVE"> F  </i>
  <i type="logical" name="LCHARG"> F  </i>
  <v type="int" name="KPOINT_BSE">    -1     0     0     0</v>
 </incar>
 <kpoints>
  <generation param="Gamma">
   <v type="int" name="divisions">       8        8        1 </v>
   <v name="usershift">      0.00000000       0.00000000       0.00000000 </v>
   <v name="genvec1">      0.12500000       0.00000000       0.00000000 </v>
   <v name="genvec2">     -0.00000000       0.12500000       0.00000000 </v>
   <v name="genvec3">      0.00000000       0.00000000       1.00000000 </v>
   <v name="shift">      0.00000000       0.00000000       0.00000000 </v>
  </generation>
  <varray name="kpointlist" >
   <v>       0.00000000       0.00000000       0.00000000 </v>
   <v>       0.12500000       0.00000000       0.00000000 </v>
   <v>       0.25000000       0.00000000       0.00000000 </v>
   <v>       0.37500000       0.00000000       0.00000000 </v>
   <v>       0.50000000       0.00000000       0.00000000 </v>
   <v>       0.00000000       0.12500000       0.00000000 </v>
   <v>       0.12500000       0.12500000       0.00000000 </v>
   <v>       0.25000000       0.12500000       0.00000000 </v>
   <v>       0.37500000       0.12500000       0.00000000 </v>
   <v>       0.50000000       0.12500000       0.00000000 </v>
   <v>      -0.37500000       0.12500000       0.00000000 </v>
   <v>      -0.25000000       0.12500000       0.00000000 </v>
   <v>      -0.12500000       0.12500000       0.00000000 </v>
   <v>       0.00000000       0.25000000       0.00000000 </v>
   <v>       0.12500000       0.25000000       0.00000000 </v>
   <v>       0.25000000       0.25000000       0.00000000 </v>
   <v>       0.37500000       0.25000000       0.00000000 </v>
   <v>       0.50000000       0.25000000       0.00000000 </v>
   <v>      -0.37500000       0.25000000       0.00000000 </v>
   <v>      -0.25000000       0.25000000       0.00000000 </v>
   <v>      -0.12500000       0.25000000       0.00000000 </v>
   <v>      -0.00000000       0.37500000       0.00000000 </v>
   <v>       0.12500000       0.37500000       0.00000000 </v>
   <v>       0.25000000       0.37500000       0.00000000 </v>
   <v>       0.37500000       0.37500000       0.00000000 </v>
   <v>       0.50000000       0.37500000       0.00000000 </v>
   <v>      -0.37500000       0.37500000       0.00000000 </v>
   <v>      -0.25000000       0.37500000       0.00000000 </v>
   <v>      -0.12500000       0.37500000       0.00000000 </v>
   <v>       0.00000000       0.50000000       0.00000000 </v>
   <v>       0.12500000       0.50000000       0.00000000 </v>
   <v>       0.25000000       0.50000000       0.00000000 </v>
   <v>       0.37500000       0.50000000       0.00000000 </v>
   <v>       0.50000000       0.50000000       0.00000000 </v>
  </varray>
  <varray name="weights" >
   <v>       0.01562500 </v>
   <v>       0.03125000 </v>
   <v>       0.03125000 </v>
   <v>       0.03125000 </v>
   <v>       0.01562500 </v>
   <v>       0.03125000 </v>
   <v>       0.03125000 </v>
   <v>       0.03125000 </v>
   <v>       0.03125000 </v>
   <v>       0.03125000 </v>
   <v>       0.03125000 </v>
   <v>       0.03125000 </v>
   <v>       0.03125000 </v>
   <v>       0.03125000 </v>
   <v>       0.03125000 </v>
   <v>       0.03125000 </v>
   <v>       0.03125000 </v>
   <v>       0.03125000 </v>
   <v>       0.03125000 </v>
   <v>       0.03125000 </v>
   <v>       0.03125000 </v>
   <v>       0.03125000 </v>
   <v>       0.03125000 </v>
   <v>       0.03125000 </v>
   <v>       0.03125000 </v>
   <v>       0.03125000 </v>
   <v>       0.03125000 </v>
   <v>       0.03125000 </v>
   <v>       0.03125000 </v>
   <v>       0.01562500 </v>
   <v>       0.03125000 </v>
   <v>       0.03125000 </v>
   <v>       0.03125000 </v>
   <v>       0.01562500 </v>
  </varray>
 </kpoints>
 <parameters>
  <separator name="general" >
   <i type="string" name="SYSTEM">unknown system</i>
   <i type="logical" name="LCOMPAT"> F  </i>
  </separator>
  <separator name="electronic" >
   <i type="string" name="PREC">normal</i>
   <i name="ENMAX">    280.00000000</i>
   <i name="ENAUG">    373.43800000</i>
   <i name="EDIFF">      0.00010000</i>
   <i type="int" name="IALGO">    38</i>
   <i type="int" name="IWAVPR">    11</i>
   <i type="int" name="NBANDS">   120</i>
   <i name="NELECT">    159.00000000</i>
   <i type="int" name="TURBO">     0</i>
   <i type="int" name="IRESTART">     0</i>
   <i type="int" name="NREBOOT">     0</i>
   <i type="int" name="NMIN">     0</i>
   <i name="EREF">      0.00000000</i>
   <separator name="electronic smearing" >
    <i type="int" name="ISMEAR">     0</i>
    <i name="SIGMA">      0.20000000</i>
    <i name="KSPACING">      0.50000000</i>
    <i type="logical" name="KGAMMA"> T  </i>
   </separator>
   <separator name="electronic projectors" >
    <i type="logical" name="LREAL"> F  </i>
    <v name="ROPT">      0.00000000      0.00000000      0.00000000      0.00000000</v>
    <i type="int" name="LMAXPAW">  -100</i>
    <i type="int" name="LMAXMIX">     2</i>
    <i type="logical" name="NLSPLINE"> F  </i>
   </separator>
   <separator name="electronic startup" >
    <i type="int" name="ISTART">     0</i>
    <i type="int" name="ICHARG">     2</i>
    <i type="int" name="INIWAV">     1</i>
   </separator>
   <separator name="electronic spin" >
    <i type="int" name="ISPIN">     1</i>
    <i type="logical" name="LNONCOLLINEAR"> F  </i>
    <v name="MAGMOM">      1.00000000      1.00000000      1.00000000      1.00000000      1.00000000      1.00000000      1.00000000      1.00000000      1.00000000      1.00000000      1.00000000      1.00000000      1.00000000      1.00000000      1.00000000      1.00000000      1.00000000      1.00000000      1.00000000      1.00000000
      1.00000000      1.00000000      1.00000000      1.00000000      1.00000000      1.00000000      1.00000000</v>
    <i name="NUPDOWN">     -1.00000000</i>
    <i type="logical" name="LSORBIT"> F  </i>
    <v name="SAXIS">      0.00000000      0.00000000      1.00000000</v>
    <i type="logical" name="LSPIRAL"> F  </i>
    <v name="QSPIRAL">      0.00000000      0.00000000      0.00000000</v>
    <i type="logical" name="LZEROZ"> F  </i>
   </separator>
   <separator name="electronic exchange-correlation" >
    <i type="logical" name="LASPH"> F  </i>
    <i type="logical" name="LMETAGGA"> F  </i>
   </separator>
   <separator name="electronic convergence" >
    <i type="int" name="NELM">    60</i>
    <i type="int" name="NELMDL">    -5</i>
    <i type="int" name="NELMIN">     2</i>
    <i name="ENINI">    280.00000000</i>
    <separator name="electronic convergence detail" >
     <i type="logical" name="LDIAG"> T  </i>
     <i type="logical" name="LSUBROT"> F  </i>
     <i name="WEIMIN">      0.00100000</i>
     <i name="EBREAK">      0.00000021</i>
     <i name="DEPER">      0.30000000</i>
     <i type="int" name="NRMM">     4</i>
     <i name="TIME">      0.40000000</i>
    </separator>
   </separator>
   <separator name="electronic mixer" >
    <i name="AMIX">      0.40000000</i>
    <i name="BMIX">      1.00000000</i>
    <i name="AMIN">      0.10000000</i>
    <i name="AMIX_MAG">      1.60000000</i>
    <i name="BMIX_MAG">      1.00000000</i>
    <separator name="electronic mixer details" >
     <i type="int" name="IMIX">     4</i>
     <i type="logical" name="MIXFIRST"> F  </i>
     <i type="int" name="MAXMIX">   -45</i>
     <i name="WC">    100.00000000</i>
     <i type="int" name="INIMIX">     1</i>
     <i type="int" name="MIXPRE">     1</i>
     <i type="int" name="MREMOVE">     5</i>
    </separator>
   </separator>
   <separator name="electronic dipolcorrection" >
    <i type="logical" name="LDIPOL"> F  </i>
    <i type="logical" name="LMONO"> F  </i>
    <i type="int" name="IDIPOL">     0</i>
    <i name="EPSILON">      1.00000000</i>
    <v name="DIPOL">   -100.00000000   -100.00000000   -100.00000000</v>
    <i name="EFIELD">      0.00000000</i>
   </separator>
  </separator>
  <separator name="grids" >
   <i type="int" name="NGX">    42</i>
   <i type="int" name="NGY">    42</i>
   <i type="int" name="NGZ">   126</i>
   <i type="int" name="NGXF">    84</i>
   <i type="int" name="NGYF">    84</i>
   <i type="int" name="NGZF">   252</i>
   <i type="logical" name="ADDGRID"> F  </i>
  </separator>
  <separator name="ionic" >
   <i type="int" name="NSW">   100</i>
   <i type="int" name="IBRION">     1</i>
   <i type="int" name="ISIF">     3</i>
   <i name="PSTRESS">      0.00000000</i>
   <i name="EDIFFG">      0.00100000</i>
   <i type="int" name="NFREE">     0</i>
   <i name="POTIM">      0.50000000</i>
   <i name="SMASS">     -3.00000000</i>
   <i name="SCALEE">      1.00000000</i>
  </separator>
  <separator name="ionic md" >
   <i name="TEBEG">      0.00010000</i>
   <i name="TEEND">      0.00010000</i>
   <i type="int" name="NBLOCK">     1</i>
   <i type="int" name="KBLOCK">   100</i>
   <i type="int" name="NPACO">   256</i>
   <i name="APACO">     16.00000000</i>
  </separator>
  <separator name="symmetry" >
   <i type="int" name="ISYM">     0</i>
   <i name="SYMPREC">      0.00000001</i>
  </separator>
  <separator name="dos" >
   <i type="logical" name="LORBIT"> F  </i>
   <v name="RWIGS">     -1.00000000     -1.00000000     -1.00000000     -1.00000000</v>
   <i type="int" name="NEDOS">   301</i>
   <i name="EMIN">     10.00000000</i>
   <i name="EMAX">    -10.00000000</i>
   <i name="EFERMI">      0.00000000</i>
  </separator>
  <separator name="writing" >
   <i type="int" name="NWRITE">     2</i>
   <i type="logical" name="LWAVE"> F  </i>
   <i type="logical" name="LCHARG"> F  </i>
   <i type="logical" name="LPARD"> F  </i>
   <i type="logical" name="LVTOT"> F  </i>
   <i type="logical" name="LVHAR"> F  </i>
   <i type="logical" name="LELF"> F  </i>
   <i type="logical" name="LOPTICS"> F  </i>
   <v name="STM">      0.00000000      0.00000000      0.00000000      0.00000000      0.00000000      0.00000000      0.00000000</v>
  </separator>
  <separator name="performance" >
   <i type="int" name="NPAR">    40</i>
   <i type="int" name="NSIM">     4</i>
   <i type="int" name="NBLK">    -1</i>
   <i type="logical" name="LPLANE"> F  </i>
   <i type="logical" name="LSCALAPACK"> T  </i>
   <i type="logical" name="LSCAAWARE"> F  </i>
   <i type="logical" name="LSCALU"> F  </i>
   <i type="logical" name="LASYNC"> F  </i>
   <i type="logical" name="LORBITALREAL"> F  </i>
  </separator>
  <separator name="miscellaneous" >
   <i type="int" name="IDIOT">     3</i>
   <i type="logical" name="LMUSIC"> F  </i>
   <v name="POMASS">     50.94100000     95.94000000    183.85000000     32.06600000</v>
   <v name="DARWINR">      0.00000000      0.00000000      0.00000000      0.00000000</v>
   <v name="DARWINV">      1.00000000      1.00000000      1.00000000      1.00000000</v>
   <i type="logical" name="LCORR"> T  </i>
  </separator>
  <i type="logical" name="GGA_COMPAT"> T  </i>
  <i type="logical" name="LBERRY"> F  </i>
  <i type="int" name="ICORELEVEL">     0</i>
  <i type="logical" name="LDAU"> F  </i>
  <i type="int" name="I_CONSTRAINED_M">     0</i>
  <separator name="electronic exchange-correlation" >
   <i type="string" name="GGA">--</i>
   <i type="int" name="VOSKOWN">     0</i>
   <i type="logical" name="LHFCALC"> F  </i>
   <i type="string" name="PRECFOCK"></i>
   <i type="logical" name="LSYMGRAD"> F  </i>
   <i type="logical" name="LHFONE"> F  </i>
   <i type="logical" name="LRHFCALC"> F  </i>
   <i type="logical" name="LTHOMAS"> F  </i>
   <i type="logical" name="LMODELHF"> F  </i>
   <i name="ENCUT4O">     -1.00000000</i>
   <i type="int" name="EXXOEP">     0</i>
   <i type="int" name="FOURORBIT">     0</i>
   <i name="AEXX">      0.00000000</i>
   <i name="HFALPHA">      0.00000000</i>
   <i name="MCALPHA">      0.00000000</i>
   <i name="ALDAX">      1.00000000</i>
   <i name="AGGAX">      1.00000000</i>
   <i name="ALDAC">      1.00000000</i>
   <i name="AGGAC">      1.00000000</i>
   <i type="int" name="NKREDX">     1</i>
   <i type="int" name="NKREDY">     1</i>
   <i type="int" name="NKREDZ">     1</i>
   <i type="logical" name="SHIFTRED"> F  </i>
   <i type="logical" name="ODDONLY"> F  </i>
   <i type="logical" name="EVENONLY"> F  </i>
   <i type="int" name="LMAXFOCK">     0</i>
   <i type="int" name="NMAXFOCKAE">     0</i>
   <i type="logical" name="LFOCKAEDFT"> F  </i>
   <i name="HFSCREEN">      0.00000000</i>
   <i name="HFSCREENC">      0.00000000</i>
   <i type="int" name="NBANDSGWLOW">     0</i>
  </separator>
  <separator name="vdW DFT" >
   <i type="logical" name="LUSE_VDW"> F  </i>
   <i name="Zab_VDW">     -0.84910000</i>
   <i name="PARAM1">      0.12340000</i>
   <i name="PARAM2">      1.00000000</i>
   <i name="PARAM3">      0.00000000</i>
  </separator>
  <separator name="model GW" >
   <i type="int" name="MODEL_GW">     0</i>
   <i name="MODEL_EPS0">     58.26239943</i>
   <i name="MODEL_ALPHA">      1.00000000</i>
  </separator>
  <separator name="linear response parameters" >
   <i type="logical" name="LEPSILON"> F  </i>
   <i type="logical" name="LRPA"> F  </i>
   <i type="logical" name="LNABLA"> F  </i>
   <i type="logical" name="LVEL"> F  </i>
   <i type="int" name="KINTER">     0</i>
   <i name="CSHIFT">      0.10000000</i>
   <i name="OMEGAMAX">     -1.00000000</i>
   <i name="DEG_THRESHOLD">      0.00200000</i>
  </separator>
  <separator name="orbital magnetization" >
   <i type="logical" name="NUCIND"> F  </i>
   <v name="MAGPOS">      0.00000000      0.00000000      0.00000000</v>
   <i type="logical" name="LNICSALL"> T  </i>
   <i type="logical" name="ORBITALMAG"> F  </i>
   <i type="logical" name="LMAGBLOCH"> F  </i>
   <i type="logical" name="LCHIMAG"> F  </i>
   <i type="logical" name="LGAUGE"> T  </i>
   <i type="int" name="MAGATOM">     0</i>
   <v name="MAGDIPOL">      0.00000000      0.00000000      0.00000000</v>
   <v name="AVECCONST">      0.00000000      0.00000000      0.00000000</v>
  </separator>
  <separator name="response functions" >
   <i type="logical" name="LADDER"> F  </i>
   <i type="logical" name="LFXC"> F  </i>
   <i type="logical" name="LHARTREE"> T  </i>
   <i type="int" name="IBSE">     0</i>
   <v type="int" name="KPOINT">    -1     0     0     0</v>
   <i type="logical" name="LTCTE"> F  </i>
   <i type="logical" name="LTETE"> F  </i>
   <i type="logical" name="LTRIPLET"> F  </i>
   <i type="logical" name="LFXCEPS"> F  </i>
   <i type="logical" name="LFXHEG"> F  </i>
   <i type="int" name="NATURALO">     0</i>
   <i type="logical" name="L2ORDER"> F  </i>
   <i type="logical" name="LUSEW"> F  </i>
   <i name="ENCUTGW">     -2.00000000</i>
   <i name="ENCUTGWSOFT">     -2.00000000</i>
   <i name="ENCUTLF">     -1.00000000</i>
   <i type="int" name="LMAXMP2">    -1</i>
   <i name="SCISSOR">      0.00000000</i>
   <i type="int" name="NOMEGA">     0</i>
   <i type="int" name="NOMEGAR">     0</i>
   <i type="int" name="NBANDSGW">    -1</i>
   <i type="int" name="NBANDSO">    -1</i>
   <i type="int" name="NBANDSV">    -1</i>
   <i type="int" name="NELM">     1</i>
   <i type="int" name="NELMHF">     1</i>
   <i type="int" name="DIM">     3</i>
   <i type="int" name="ANTIRES">     0</i>
   <i name="OMEGAMAX">    -30.00000000</i>
   <i name="OMEGAMIN">    -30.00000000</i>
   <i name="OMEGATL">   -200.00000000</i>
   <i type="int" name="OMEGAGRID">     0</i>
   <i name="CSHIFT">     -0.10000000</i>
   <i type="logical" name="SELFENERGY"> F  </i>
   <i type="logical" name="LSPECTRAL"> F  </i>
   <i type="logical" name="LSPECTRALGW"> F  </i>
   <i type="logical" name="LSINGLES"> F  </i>
   <i type="logical" name="LFERMIGW"> F  </i>
   <i type="logical" name="ODDONLYGW"> F  </i>
   <i type="logical" name="EVENONLYGW"> F  </i>
   <i type="int" name="NKREDLFX">     1</i>
   <i type="int" name="NKREDLFY">     1</i>
   <i type="int" name="NKREDLFZ">     1</i>
   <i type="int" name="MAXMEM">  1800</i>
   <i type="int" name="TELESCOPE">     0</i>
   <i type="int" name="TAUPAR">     1</i>
   <i type="int" name="OMEGAPAR">    -1</i>
   <i name="LAMBDA">      1.00000000</i>
  </separator>
  <separator name="External order field" >
   <i name="OFIELD_KAPPA">      0.00000000</i>
   <v name="OFIELD_K">      0.00000000      0.00000000      0.00000000</v>
   <i name="OFIELD_Q6_NEAR">      0.00000000</i>
   <i name="OFIELD_Q6_FAR">      0.00000000</i>
   <i name="OFIELD_A">      0.00000000</i>
  </separator>
 </parameters>
 <atominfo>
  <atoms>      27 </atoms>
  <types>       4 </types>
  <array name="atoms" >
   <dimension dim="1">ion</dimension>
   <field type="string">element</field>
   <field type="int">atomtype</field>
   <set>
    <rc><c>V </c><c>   1</c></rc>
    <rc><c>V </c><c>   1</c></rc>
    <rc><c>V </c><c>   1</c></rc>
    <rc><c>Mo</c><c>   2</c></rc>
    <rc><c>Mo</c><c>   2</c></rc>
    <rc><c>Mo</c><c>   2</c></rc>
    <rc><c>W </c><c>   3</c></rc>
    <rc><c>W </c><c>   3</c></rc>
    <rc><c>W </c><c>   3</c></rc>
    <rc><c>S </c><c>   4</c></rc>
    <rc><c>S </c><c>   4</c></rc>
    <rc><c>S </c><c>   4</c></rc>
    <rc><c>S </c><c>   4</c></rc>
    <rc><c>S </c><c>   4</c></rc>
    <rc><c>S </c><c>   4</c></rc>
    <rc><c>S </c><c>   4</c></rc>
    <rc><c>S </c><c>   4</c></rc>
    <rc><c>S </c><c>   4</c></rc>
    <rc><c>S </c><c>   4</c></rc>
    <rc><c>S </c><c>   4</c></rc>
    <rc><c>S </c><c>   4</c></rc>
    <rc><c>S </c><c>   4</c></rc>
    <rc><c>S </c><c>   4</c></rc>
    <rc><c>S </c><c>   4</c></rc>
    <rc><c>S </c><c>   4</c></rc>
    <rc><c>S </c><c>   4</c></rc>
    <rc><c>S </c><c>   4</c></rc>
   </set>
  </array>
  <array name="atomtypes" >
   <dimension dim="1">type</dimension>
   <field type="int">atomspertype</field>
   <field type="string">element</field>
   <field>mass</field>
   <field>valence</field>
   <field type="string">pseudopotential</field>
   <set>
    <rc><c>   3</c><c>V </c><c>     50.94100000</c><c>      5.00000000</c><c> PAW_PBE V 08Apr2002                    </c></rc>
    <rc><c>   3</c><c>Mo</c><c>     95.94000000</c><c>      6.00000000</c><c> PAW_PBE Mo 08Apr2002                   </c></rc>
    <rc><c>   3</c><c>W </c><c>    183.85000000</c><c>      6.00000000</c><c> PAW_PBE W 08Apr2002                    </c></rc>
    <rc><c>  18</c><c>S </c><c>     32.06600000</c><c>      6.00000000</c><c>  PAW_PBE S 17Jan2003                   </c></rc>
   </set>
  </array>
 </atominfo>
 <structure name="initialpos" >
  <crystal>
   <varray name="basis" >
    <v>       8.66999996       5.03999989       0.00000000 </v>
    <v>      -8.66999982       5.04000013       0.00000000 </v>
    <v>       0.00000000       0.00000000      30.00000000 </v>
   </varray>
   <i name="volume">   2621.80797419 </i>
   <varray name="rec_basis" >
    <v>       0.05767013       0.09920635       0.00000000 </v>
    <v>      -0.05767013       0.09920635       0.00000000 </v>
    <v>       0.00000000       0.00000000       0.03333333 </v>
   </varray>
  </crystal>
  <varray name="positions" >
   <v>       1.00000000       0.33333334       0.00000000 </v>
   <v>       0.66666669       0.33333334       0.00000000 </v>
   <v>       0.66666669       0.66666669       0.00000000 </v>
   <v>       0.33333334       0.00000000       0.00000000 </v>
   <v>       0.66666669       0.00000000       0.00000000 </v>
   <v>       0.00000000       0.00000000       0.00000000 </v>
   <v>       0.00000000       0.66666669       0.00000000 </v>
   <v>       0.33333334       0.33333334       0.00000000 </v>
   <v>       0.33333334       0.66666669       0.00000000 </v>
   <v>       0.11068511       0.22244981       0.95539999 </v>
   <v>       0.22244981       0.11068511       0.04460000 </v>
   <v>       0.11068511       0.55578315       0.95539999 </v>
   <v>       0.22244981       0.44401845       0.04460000 </v>
   <v>       0.11068511       0.88911647       0.95539999 </v>
   <v>       0.22244981       0.77735180       0.04460000 </v>
   <v>       0.44401845       0.22244981       0.95539999 </v>
   <v>       0.55578315       0.11068511       0.04460000 </v>
   <v>       0.44401845       0.55578315       0.95539999 </v>
   <v>       0.55578315       0.44401845       0.04460000 </v>
   <v>       0.44401845       0.88911647       0.95539999 </v>
   <v>       0.55578315       0.77735180       0.04460000 </v>
   <v>       0.77735180       0.22244981       0.95539999 </v>
   <v>       0.88911647       0.11068511       0.04460000 </v>
   <v>       0.77735180       0.55578315       0.95539999 </v>
   <v>       0.88911647       0.44401845       0.04460000 </v>
   <v>       0.77735180       0.88911647       0.95539999 </v>
   <v>       0.88911647       0.77735180       0.04460000 </v>
  </varray>
 </structure>
 <calculation>
  <scstep>
   <time name="dav">   21.64   21.69</time>
   <time name="total">   21.68   21.74</time>
   <energy>
    <i name="alphaZ">     81.65567618 </i>
    <i name="ewald">  41890.25210247 </i>
    <i name="hartreedc"> -47722.88004891 </i>
    <i name="XCdc">   -242.92955975 </i>
    <i name="pawpsdc">   3467.42045192 </i>
    <i name="pawaedc">  -2871.19716117 </i>
    <i name="eentropy">     -0.53670953 </i>
    <i name="bandstr">   -239.45261987 </i>
    <i name="atom">   6761.44252427 </i>
    <i name="e_fr_energy">   1123.77465561 </i>
    <i name="e_wo_entrp">   1124.31136514 </i>
    <i name="e_0_energy">   1124.04301037 </i>
   </energy>
  </scstep>
  <scstep>
   <time name="dav">   28.15   28.22</time>
   <time name="total">   28.15   28.23</time>
   <energy>
    <i name="e_fr_energy">     -1.90885112 </i>
    <i name="e_wo_entrp">     -1.69898999 </i>
    <i name="e_0_energy">     -1.80392056 </i>
   </energy>
  </scstep>
  <scstep>
   <time name="dav">   27.37   27.44</time>
   <time name="total">   27.37   27.45</time>
   <energy>
    <i name="e_fr_energy">   -199.65794540 </i>
    <i name="e_wo_entrp">   -199.38786724 </i>
    <i name="e_0_energy">   -199.52290632 </i>
   </energy>
  </scstep>
  <scstep>
   <time name="dav">   29.81   29.89</time>
   <time name="total">   29.82   29.89</time>
   <energy>
    <i name="e_fr_energy">   -208.93532048 </i>
    <i name="e_wo_entrp">   -208.63628225 </i>
    <i name="e_0_energy">   -208.78580136 </i>
   </energy>
  </scstep>
  <scstep>
   <time name="dav">   28.51   28.57</time>
   <time name="total">   28.97   29.05</time>
   <energy>
    <i name="e_fr_energy">   -209.27387491 </i>
    <i name="e_wo_entrp">   -208.97797836 </i>
    <i name="e_0_energy">   -209.12592663 </i>
   </energy>
  </scstep>
  <scstep>
   <time name="dav">   31.01   31.09</time>
   <time name="total">   31.51   31.60</time>
   <energy>
    <i name="e_fr_energy">   -237.12896614 </i>
    <i name="e_wo_entrp">   -236.86019439 </i>
    <i name="e_0_energy">   -236.99458027 </i>
   </energy>
  </scstep>
  <scstep>
   <time name="dav">   31.78   31.85</time>
   <time name="total">   32.28   32.37</time>
   <energy>
    <i name="e_fr_energy">   -196.66524688 </i>
    <i name="e_wo_entrp">   -196.33047969 </i>
    <i name="e_0_energy">   -196.49786328 </i>
   </energy>
  </scstep>
  <scstep>
   <time name="dav">   28.85   28.92</time>
   <time name="total">   29.36   29.44</time>
   <energy>
    <i name="e_fr_energy">   -190.08297483 </i>
    <i name="e_wo_entrp">   -189.81426667 </i>
    <i name="e_0_energy">   -189.94862075 </i>
   </energy>
  </scstep>
  <scstep>
   <time name="dav">   30.10   30.18</time>
   <time name="total">   30.62   30.71</time>
   <energy>
    <i name="e_fr_energy">   -188.31817242 </i>
    <i name="e_wo_entrp">   -187.98901455 </i>
    <i name="e_0_energy">   -188.15359348 </i>
   </energy>
  </scstep>
  <scstep>
   <time name="dav">   32.23   32.31</time>
   <time name="total">   32.76   32.84</time>
   <energy>
    <i name="e_fr_energy">   -187.12764776 </i>
    <i name="e_wo_entrp">   -186.78538384 </i>
    <i name="e_0_energy">   -186.95651580 </i>
   </energy>
  </scstep>
  <scstep>
   <time name="dav">   30.53   30.60</time>
   <time name="total">   31.06   31.14</time>
   <energy>
    <i name="e_fr_energy">   -187.01234111 </i>
    <i name="e_wo_entrp">   -186.66364022 </i>
    <i name="e_0_energy">   -186.83799066 </i>
   </energy>
  </scstep>
  <scstep>
   <time name="dav">   31.58   31.66</time>
   <time name="total">   32.11   32.20</time>
   <energy>
    <i name="e_fr_energy">   -187.03148669 </i>
    <i name="e_wo_entrp">   -186.69785082 </i>
    <i name="e_0_energy">   -186.86466876 </i>
   </energy>
  </scstep>
  <scstep>
   <time name="dav">   31.94   32.02</time>
   <time name="total">   32.48   32.56</time>
   <energy>
    <i name="e_fr_energy">   -186.93399694 </i>
    <i name="e_wo_entrp">   -186.59797038 </i>
    <i name="e_0_energy">   -186.76598366 </i>
   </energy>
  </scstep>
  <scstep>
   <time name="dav">   31.27   31.34</time>
   <time name="total">   31.80   31.88</time>
   <energy>
    <i name="e_fr_energy">   -186.90397450 </i>
    <i name="e_wo_entrp">   -186.56293831 </i>
    <i name="e_0_energy">   -186.73345640 </i>
   </energy>
  </scstep>
  <scstep>
   <time name="dav">   30.64   30.71</time>
   <time name="total">   31.17   31.26</time>
   <energy>
    <i name="e_fr_energy">   -186.89841563 </i>
    <i name="e_wo_entrp">   -186.55538545 </i>
    <i name="e_0_energy">   -186.72690054 </i>
   </energy>
  </scstep>
  <scstep>
   <time name="dav">   30.55   30.62</time>
   <time name="total">   31.08   31.16</time>
   <energy>
    <i name="e_fr_energy">   -186.89195361 </i>
    <i name="e_wo_entrp">   -186.54857451 </i>
    <i name="e_0_energy">   -186.72026406 </i>
   </energy>
  </scstep>
  <scstep>
   <time name="dav">   30.99   31.07</time>
   <time name="total">   31.53   31.61</time>
   <energy>
    <i name="e_fr_energy">   -186.88923359 </i>
    <i name="e_wo_entrp">   -186.54792788 </i>
    <i name="e_0_energy">   -186.71858073 </i>
   </energy>
  </scstep>
  <scstep>
   <time name="dav">   28.60   28.67</time>
   <time name="total">   29.13   29.21</time>
   <energy>
    <i name="e_fr_energy">   -186.88870776 </i>
    <i name="e_wo_entrp">   -186.54751180 </i>
    <i name="e_0_energy">   -186.71810978 </i>
   </energy>
  </scstep>
  <scstep>
   <time name="dav">   26.87   26.93</time>
   <time name="total">   27.40   27.47</time>
   <energy>
    <i name="e_fr_energy">   -186.88849551 </i>
    <i name="e_wo_entrp">   -186.54685695 </i>
    <i name="e_0_energy">   -186.71767623 </i>
   </energy>
  </scstep>
  <scstep>
   <time name="dav">   23.67   23.73</time>
   <time name="total">   24.20   24.27</time>
   <energy>
    <i name="e_fr_energy">   -186.88938111 </i>
    <i name="e_wo_entrp">   -186.54805646 </i>
    <i name="e_0_energy">   -186.71871878 </i>
   </energy>
  </scstep>
  <scstep>
   <time name="dav">   21.80   21.85</time>
   <time name="total">   22.33   22.39</time>
   <energy>
    <i name="e_fr_energy">   -186.89032211 </i>
    <i name="e_wo_entrp">   -186.54886827 </i>
    <i name="e_0_energy">   -186.71959519 </i>
   </energy>
  </scstep>
  <scstep>
   <time name="dav">   18.04   18.08</time>
   <time name="total">   18.57   18.62</time>
   <energy>
    <i name="e_fr_energy">   -186.89107237 </i>
    <i name="e_wo_entrp">   -186.54966356 </i>
    <i name="e_0_energy">   -186.72036796 </i>
   </energy>
  </scstep>
  <scstep>
   <time name="dav">   20.39   20.44</time>
   <time name="total">   20.93   20.98</time>
   <energy>
    <i name="e_fr_energy">   -186.89221292 </i>
    <i name="e_wo_entrp">   -186.55091611 </i>
    <i name="e_0_energy">   -186.72156451 </i>
   </energy>
  </scstep>
  <scstep>
   <time name="dav">   18.91   18.95</time>
   <time name="total">   19.44   19.50</time>
   <energy>
    <i name="e_fr_energy">   -186.89279429 </i>
    <i name="e_wo_entrp">   -186.55143545 </i>
    <i name="e_0_energy">   -186.72211487 </i>
   </energy>
  </scstep>
  <scstep>
   <time name="dav">   16.38   16.42</time>
   <time name="total">   16.92   16.97</time>
   <energy>
    <i name="e_fr_energy">   -186.89316112 </i>
    <i name="e_wo_entrp">   -186.55177646 </i>
    <i name="e_0_energy">   -186.72246879 </i>
   </energy>
  </scstep>
  <scstep>
   <time name="dav">   18.82   18.86</time>
   <time name="total">   19.35   19.40</time>
   <energy>
    <i name="e_fr_energy">   -186.89340765 </i>
    <i name="e_wo_entrp">   -186.55204578 </i>
    <i name="e_0_energy">   -186.72272672 </i>
   </energy>
  </scstep>
  <scstep>
   <time name="dav">   19.84   19.89</time>
   <time name="total">   19.87   19.93</time>
   <energy>
    <i name="alphaZ">     81.65567618 </i>
    <i name="ewald">  41890.25210247 </i>
    <i name="hartreedc"> -47833.18059894 </i>
    <i name="XCdc">   -231.59806698 </i>
    <i name="pawpsdc">   4192.17266579 </i>
    <i name="pawaedc">  -3610.19729641 </i>
    <i name="eentropy">     -0.34136507 </i>
    <i name="bandstr">  -1437.09914165 </i>
    <i name="atom">   6761.44252427 </i>
    <i name="e_fr_energy">   -186.89350034 </i>
    <i name="e_wo_entrp">   -186.55213527 </i>
    <i name="e_0_energy">   -186.72281780 </i>
   </energy>
  </scstep>
  <structure>
   <crystal>
    <varray name="basis" >
     <v>       8.66999996       5.03999989       0.00000000 </v>
     <v>      -8.66999982       5.04000013       0.00000000 </v>
     <v>       0.00000000       0.00000000      30.00000000 </v>
    </varray>
    <i name="volume">   2621.80797419 </i>
    <varray name="rec_basis" >
     <v>       0.05767013       0.09920635       0.00000000 </v>
     <v>      -0.05767013       0.09920635       0.00000000 </v>
     <v>       0.00000000       0.00000000       0.03333333 </v>
    </varray>
   </crystal>
   <varray name="positions" >
    <v>       1.00000000       0.33333334       0.00000000 </v>
    <v>       0.66666669       0.33333334       0.00000000 </v>
    <v>       0.66666669       0.66666669       0.00000000 </v>
    <v>       0.33333334       0.00000000       0.00000000 </v>
    <v>       0.66666669       0.00000000       0.00000000 </v>
    <v>       0.00000000       0.00000000       0.00000000 </v>
    <v>       0.00000000       0.66666669       0.00000000 </v>
    <v>       0.33333334       0.33333334       0.00000000 </v>
    <v>       0.33333334       0.66666669       0.00000000 </v>
    <v>       0.11068511       0.22244981       0.95539999 </v>
    <v>       0.22244981       0.11068511       0.04460000 </v>
    <v>       0.11068511       0.55578315       0.95539999 </v>
    <v>       0.22244981       0.44401845       0.04460000 </v>
    <v>       0.11068511       0.88911647       0.95539999 </v>
    <v>       0.22244981       0.77735180       0.04460000 </v>
    <v>       0.44401845       0.22244981       0.95539999 </v>
    <v>       0.55578315       0.11068511       0.04460000 </v>
    <v>       0.44401845       0.55578315       0.95539999 </v>
    <v>       0.55578315       0.44401845       0.04460000 </v>
    <v>       0.44401845       0.88911647       0.95539999 </v>
    <v>       0.55578315       0.77735180       0.04460000 </v>
    <v>       0.77735180       0.22244981       0.95539999 </v>
    <v>       0.88911647       0.11068511       0.04460000 </v>
    <v>       0.77735180       0.55578315       0.95539999 </v>
    <v>       0.88911647       0.44401845       0.04460000 </v>
    <v>       0.77735180       0.88911647       0.95539999 </v>
    <v>       0.88911647       0.77735180       0.04460000 </v>
   </varray>
  </structure>
  <varray name="forces" >
   <v>       0.15057283      -0.39283171      -0.08774118 </v>
   <v>       0.20470007      -0.27165930       0.00743374 </v>
   <v>      -0.14506768       0.31859796       0.07745448 </v>
   <v>       0.01584019      -0.02450005       0.02638093 </v>
   <v>      -0.01479185       0.03543688      -0.01574248 </v>
   <v>      -0.01777356       0.00455286      -0.11125894 </v>
   <v>      -0.28163621       0.29500024      -0.00515535 </v>
   <v>       0.32316214      -0.38915312       0.03626525 </v>
   <v>      -0.26446604       0.46697107       0.11633429 </v>
   <v>      -0.68855637       0.13862159      -2.16020549 </v>
   <v>      -0.19096668       0.16100977       2.88287471 </v>
   <v>       0.48294429      -0.60586992      -2.15369270 </v>
   <v>      -0.47166554      -0.55425902       2.11536387 </v>
   <v>       0.19235201      -0.13924182      -2.90552714 </v>
   <v>      -0.03355998      -0.11831335       2.94157972 </v>
   <v>       0.36517713       0.69064686      -2.17851308 </v>
   <v>      -0.52356000       0.68567561       2.14430839 </v>
   <v>       0.47292704       0.56366305      -2.11835849 </v>
   <v>       0.22179540       0.53242293       1.41282657 </v>
   <v>       0.18897559      -0.13831724      -2.90344582 </v>
   <v>       0.69200814      -0.17450861       2.15296162 </v>
   <v>      -0.31604370       0.68776369      -1.44594119 </v>
   <v>      -0.52904963       0.68357330       2.14659668 </v>
   <v>      -0.23145929      -0.51832087      -1.39319904 </v>
   <v>       0.24016408      -0.52561173       1.38374189 </v>
   <v>       0.52855232      -0.67695086      -2.14193361 </v>
   <v>      -0.37057470      -0.73439820       2.17659238 </v>
  </varray>
  <varray name="stress" >
   <v>       7.27633836      -0.12115467      -1.59973689 </v>
   <v>      -0.12115488       4.48929582      -0.03804593 </v>
   <v>      -1.59973690      -0.03804594      30.27871080 </v>
  </varray>
  <energy>
   <i name="e_fr_energy">   -186.89350034 </i>
   <i name="e_wo_entrp">   -186.72281780 </i>
   <i name="e_0_energy">     -0.34136507 </i>
  </energy>
  <time name="totalsc">  773.72  775.78</time>
 </calculation>
 <calculation>
  <scstep>
   <time name="dav">   21.61   21.67</time>
   <time name="total">   22.15   22.21</time>
   <energy>
    <i name="alphaZ">     78.91875093 </i>
    <i name="ewald">  39379.22292331 </i>
    <i name="hartreedc"> -45336.80858941 </i>
    <i name="XCdc">   -239.05311922 </i>
    <i name="pawpsdc">   4192.15111612 </i>
    <i name="pawaedc">  -3610.17598034 </i>
    <i name="eentropy">     -0.27868643 </i>
    <i name="bandstr">  -1412.95121429 </i>
    <i name="atom">   6761.44252427 </i>
    <i name="e_fr_energy">   -187.53227504 </i>
    <i name="e_wo_entrp">   -187.25358862 </i>
    <i name="e_0_energy">   -187.39293183 </i>
   </energy>
  </scstep>
  <scstep>
   <time name="dav">   30.18   30.25</time>
   <time name="total">   30.71   30.79</time>
   <energy>
    <i name="e_fr_energy">   -189.48799024 </i>
    <i name="e_wo_entrp">   -189.15796029 </i>
    <i name="e_0_energy">   -189.32297526 </i>
   </energy>
  </scstep>
  <scstep>
   <time name="dav">   30.28   30.35</time>
   <time name="total">   30.83   30.91</time>
   <energy>
    <i name="e_fr_energy">   -189.37298604 </i>
    <i name="e_wo_entrp">   -189.10215423 </i>
    <i name="e_0_energy">   -189.23757013 </i>
   </energy>
  </scstep>
  <scstep>
   <time name="dav">   30.54   30.62</time>
   <time name="total">   31.08   31.17</time>
   <energy>
    <i name="e_fr_energy">   -188.78717728 </i>
    <i name="e_wo_entrp">   -188.50822829 </i>
    <i name="e_0_energy">   -188.64770279 </i>
   </energy>
  </scstep>
  <scstep>
   <time name="dav">   30.22   30.29</time>
   <time name="total">   30.76   30.84</time>
   <energy>
    <i name="e_fr_energy">   -188.92432773 </i>
    <i name="e_wo_entrp">   -188.63298619 </i>
    <i name="e_0_energy">   -188.77865696 </i>
   </energy>
  </scstep>
  <scstep>
   <time name="dav">   30.95   31.03</time>
   <time name="total">   31.50   31.58</time>
   <energy>
    <i name="e_fr_energy">   -188.75172486 </i>
    <i name="e_wo_entrp">   -188.47608481 </i>
    <i name="e_0_energy">   -188.61390484 </i>
   </energy>
  </scstep>
  <scstep>
   <time name="dav">   29.16   29.23</time>
   <time name="total">   29.70   29.78</time>
   <energy>
    <i name="e_fr_energy">   -188.71900899 </i>
    <i name="e_wo_entrp">   -188.43924910 </i>
    <i name="e_0_energy">   -188.57912904 </i>
   </energy>
  </scstep>
  <scstep>
   <time name="dav">   31.29   31.36</time>
   <time name="total">   31.83   31.91</time>
   <energy>
    <i name="e_fr_energy">   -188.70959658 </i>
    <i name="e_wo_entrp">   -188.43221254 </i>
    <i name="e_0_energy">   -188.57090456 </i>
   </energy>
  </scstep>
  <scstep>
   <time name="dav">   29.49   29.56</time>
   <time name="total">   30.03   30.11</time>
   <energy>
    <i name="e_fr_energy">   -188.69983669 </i>
    <i name="e_wo_entrp">   -188.42277807 </i>
    <i name="e_0_energy">   -188.56130738 </i>
   </energy>
  </scstep>
  <scstep>
   <time name="dav">   31.29   31.37</time>
   <time name="total">   31.83   31.92</time>
   <energy>
    <i name="e_fr_energy">   -188.69931244 </i>
    <i name="e_wo_entrp">   -188.42251677 </i>
    <i name="e_0_energy">   -188.56091460 </i>
   </energy>
  </scstep>
  <scstep>
   <time name="dav">   28.95   29.02</time>
   <time name="total">   29.49   29.57</time>
   <energy>
    <i name="e_fr_energy">   -188.69889715 </i>
    <i name="e_wo_entrp">   -188.42239827 </i>
    <i name="e_0_energy">   -188.56064771 </i>
   </energy>
  </scstep>
  <scstep>
   <time name="dav">   29.42   29.49</time>
   <time name="total">   29.46   29.53</time>
   <energy>
    <i name="alphaZ">     78.91875093 </i>
    <i name="ewald">  39379.22292331 </i>
    <i name="hartreedc"> -45347.67726380 </i>
    <i name="XCdc">   -237.96438260 </i>
    <i name="pawpsdc">   3952.23410519 </i>
    <i name="pawaedc">  -3366.77212034 </i>
    <i name="eentropy">     -0.27652689 </i>
    <i name="bandstr">  -1407.82698260 </i>
    <i name="atom">   6761.44252427 </i>
    <i name="e_fr_energy">   -188.69897253 </i>
    <i name="e_wo_entrp">   -188.42244564 </i>
    <i name="e_0_energy">   -188.56070908 </i>
   </energy>
  </scstep>
  <structure>
   <crystal>
    <varray name="basis" >
     <v>       8.85266928       5.10308421       0.00000000 </v>
     <v>      -8.85623988       5.10922698       0.00000000 </v>
     <v>       0.00000000       0.00000000      30.00000000 </v>
    </varray>
    <i name="volume">   2712.73303762 </i>
    <varray name="rec_basis" >
     <v>       0.05650273       0.09794078       0.00000000 </v>
     <v>      -0.05643479       0.09790130       0.00000000 </v>
     <v>       0.00000000       0.00000000       0.03333333 </v>
    </varray>
   </crystal>
   <varray name="positions" >
    <v>       0.99853883       0.33103434      -0.00014110 </v>
    <v>       0.66593604       0.33146368       0.00001195 </v>
    <v>       0.66778789       0.66859509       0.00012455 </v>
    <v>       0.33326016      -0.00016133       0.00004242 </v>
    <v>       0.66679513       0.00021075      -0.00002532 </v>
    <v>      -0.00002766       0.00007124      -0.00017891 </v>
    <v>       0.00062831       0.66886211      -0.00000829 </v>
    <v>       0.33236995       0.33057178       0.00005832 </v>
    <v>       0.33483247       0.66963739       0.00018708 </v>
    <v>       0.10943288       0.22502892       0.95192619 </v>
    <v>       0.22268910       0.11198700       0.04923592 </v>
    <v>       0.10912906       0.55153984       0.95193666 </v>
    <v>       0.21848489       0.44267803       0.04800169 </v>
    <v>       0.11055386       0.88791490       0.95072765 </v>
    <v>       0.22179020       0.77687892       0.04933032 </v>
    <v>       0.44833985       0.22473925       0.95189675 </v>
    <v>       0.55760815       0.11542337       0.04804824 </v>
    <v>       0.44803189       0.55716507       0.95199348 </v>
    <v>       0.55894839       0.44594955       0.04687195 </v>
    <v>       0.44388223       0.88792872       0.95073099 </v>
    <v>       0.55687324       0.77459132       0.04806215 </v>
    <v>       0.77976413       0.22662071       0.95307479 </v>
    <v>       0.89091613       0.11542858       0.04805192 </v>
    <v>       0.77422717       0.55394644       0.95315960 </v>
    <v>       0.88726908       0.44083471       0.04682518 </v>
    <v>       0.77558244       0.88440608       0.95195557 </v>
    <v>       0.88457065       0.77486798       0.04810015 </v>
   </varray>
  </structure>
  <varray name="forces" >
   <v>       0.19693786      -0.35069582       0.05333094 </v>
   <v>       0.14311206      -0.27549042       0.08487954 </v>
   <v>      -0.15131838       0.29352585      -0.07196631 </v>
   <v>       0.02967580      -0.21456823       0.01267268 </v>
   <v>       0.00051354      -0.14994108       0.00639292 </v>
   <v>       0.11164486       0.11795024      -0.03921733 </v>
   <v>      -0.18696805       0.52543423      -0.09695217 </v>
   <v>       0.29488903      -0.48508314       0.07832740 </v>
   <v>      -0.39585808       0.48682420      -0.06446213 </v>
   <v>       0.01753250       0.09170593      -0.11425084 </v>
   <v>      -0.05556883       0.10258446       0.13934246 </v>
   <v>      -0.06111051       0.06595821       0.23254732 </v>
   <v>       0.05079512       0.06871677      -0.25597394 </v>
   <v>       0.05301570      -0.11060404      -0.17097848 </v>
   <v>       0.06493878      -0.08360464       0.14963247 </v>
   <v>      -0.10081821       0.05093775      -0.04642340 </v>
   <v>      -0.02851065       0.08634901       0.05176862 </v>
   <v>      -0.04870937      -0.06875522       0.29360444 </v>
   <v>      -0.05229759      -0.07991892      -0.19391997 </v>
   <v>       0.05114177      -0.11123078      -0.13622675 </v>
   <v>      -0.00972534      -0.09835532       0.11788995 </v>
   <v>      -0.01201061       0.04242698      -0.03629157 </v>
   <v>      -0.02971431       0.06544906       0.02620709 </v>
   <v>       0.06302086       0.07522995       0.22807230 </v>
   <v>      -0.07265538       0.07882212      -0.24494398 </v>
   <v>       0.03228328      -0.06614459      -0.06007075 </v>
   <v>       0.09576416      -0.05752256       0.05700951 </v>
  </varray>
  <varray name="stress" >
   <v>     -19.96949415       0.02631082      -0.02805391 </v>
   <v>       0.02631085     -19.56273797       0.10786264 </v>
   <v>      -0.02805398       0.10786259      -1.79097296 </v>
  </varray>
  <energy>
   <i name="e_fr_energy">   -188.69897253 </i>
   <i name="e_wo_entrp">   -188.56070908 </i>
   <i name="e_0_energy">     -0.27652689 </i>
  </energy>
  <time name="totalsc">  401.63  402.68</time>
 </calculation>
 <calculation>
  <scstep>
   <time name="dav">   23.51   23.57</time>
   <time name="total">   24.04   24.11</time>
   <energy>
    <i name="alphaZ">     82.33580374 </i>
    <i name="ewald">  41298.31412095 </i>
    <i name="hartreedc"> -47297.24327430 </i>
    <i name="XCdc">   -233.85364429 </i>
    <i name="pawpsdc">   3950.61841025 </i>
    <i name="pawaedc">  -3365.13775154 </i>
    <i name="eentropy">     -0.23218180 </i>
    <i name="bandstr">  -1386.86406688 </i>
    <i name="atom">   6761.44252427 </i>
    <i name="e_fr_energy">   -190.62005960 </i>
    <i name="e_wo_entrp">   -190.38787780 </i>
    <i name="e_0_energy">   -190.50396870 </i>
   </energy>
  </scstep>
  <scstep>
   <time name="dav">   27.70   27.76</time>
   <time name="total">   28.22   28.29</time>
   <energy>
    <i name="e_fr_energy">   -190.56995880 </i>
    <i name="e_wo_entrp">   -190.34151393 </i>
    <i name="e_0_energy">   -190.45573637 </i>
   </energy>
  </scstep>
  <scstep>
   <time name="dav">   30.17   30.24</time>
   <time name="total">   30.69   30.77</time>
   <energy>
    <i name="e_fr_energy">   -190.10769391 </i>
    <i name="e_wo_entrp">   -189.85869049 </i>
    <i name="e_0_energy">   -189.98319220 </i>
   </energy>
  </scstep>
  <scstep>
   <time name="dav">   30.68   30.75</time>
   <time name="total">   31.21   31.29</time>
   <energy>
    <i name="e_fr_energy">   -189.89470159 </i>
    <i name="e_wo_entrp">   -189.66629437 </i>
    <i name="e_0_energy">   -189.78049798 </i>
   </energy>
  </scstep>
  <scstep>
   <time name="dav">   30.11   30.18</time>
   <time name="total">   30.64   30.72</time>
   <energy>
    <i name="e_fr_energy">   -189.84694767 </i>
    <i name="e_wo_entrp">   -189.61215821 </i>
    <i name="e_0_energy">   -189.72955294 </i>
   </energy>
  </scstep>
  <scstep>
   <time name="dav">   31.02   31.09</time>
   <time name="total">   31.54   31.63</time>
   <energy>
    <i name="e_fr_energy">   -189.79771227 </i>
    <i name="e_wo_entrp">   -189.56357321 </i>
    <i name="e_0_energy">   -189.68064274 </i>
   </energy>
  </scstep>
  <scstep>
   <time name="dav">   28.66   28.72</time>
   <time name="total">   29.18   29.26</time>
   <energy>
    <i name="e_fr_energy">   -189.79113100 </i>
    <i name="e_wo_entrp">   -189.55834430 </i>
    <i name="e_0_energy">   -189.67473765 </i>
   </energy>
  </scstep>
  <scstep>
   <time name="dav">   30.23   30.31</time>
   <time name="total">   30.76   30.84</time>
   <energy>
    <i name="e_fr_energy">   -189.79160151 </i>
    <i name="e_wo_entrp">   -189.55864232 </i>
    <i name="e_0_energy">   -189.67512191 </i>
   </energy>
  </scstep>
  <scstep>
   <time name="dav">   27.20   27.27</time>
   <time name="total">   27.73   27.80</time>
   <energy>
    <i name="e_fr_energy">   -189.79122294 </i>
    <i name="e_wo_entrp">   -189.55819645 </i>
    <i name="e_0_energy">   -189.67470970 </i>
   </energy>
  </scstep>
  <scstep>
   <time name="dav">   24.98   25.04</time>
   <time name="total">   25.51   25.58</time>
   <energy>
    <i name="e_fr_energy">   -189.79147612 </i>
    <i name="e_wo_entrp">   -189.55844532 </i>
    <i name="e_0_energy">   -189.67496072 </i>
   </energy>
  </scstep>
  <scstep>
   <time name="dav">   23.03   23.08</time>
   <time name="total">   23.56   23.62</time>
   <energy>
    <i name="e_fr_energy">   -189.79120231 </i>
    <i name="e_wo_entrp">   -189.55805665 </i>
    <i name="e_0_energy">   -189.67462948 </i>
   </energy>
  </scstep>
  <scstep>
   <time name="dav">   18.89   18.93</time>
   <time name="total">   18.93   18.98</time>
   <energy>
    <i name="alphaZ">     82.33580374 </i>
    <i name="ewald">  41298.31412095 </i>
    <i name="hartreedc"> -47270.58440056 </i>
    <i name="XCdc">   -235.24516085 </i>
    <i name="pawpsdc">   4038.66070028 </i>
    <i name="pawaedc">  -3454.36932788 </i>
    <i name="eentropy">     -0.23311959 </i>
    <i name="bandstr">  -1410.11236590 </i>
    <i name="atom">   6761.44252427 </i>
    <i name="e_fr_energy">   -189.79122554 </i>
    <i name="e_wo_entrp">   -189.55810595 </i>
    <i name="e_0_energy">   -189.67466574 </i>
   </energy>
  </scstep>
  <structure>
   <crystal>
    <varray name="basis" >
     <v>       8.66525607       4.99741784       0.00000000 </v>
     <v>      -8.66846596       5.00293879       0.00000000 </v>
     <v>       0.00000000       0.00000000      30.00000000 </v>
    </varray>
    <i name="volume">   2600.15076320 </i>
    <varray name="rec_basis" >
     <v>       0.05772287       0.10001496       0.00000000 </v>
     <v>      -0.05765917       0.09997793       0.00000000 </v>
     <v>       0.00000000       0.00000000       0.03333333 </v>
    </varray>
   </crystal>
   <varray name="positions" >
    <v>       0.99814599       0.33026544      -0.00011102 </v>
    <v>       0.66561636       0.33087074       0.00005982 </v>
    <v>       0.66812961       0.66922574       0.00008397 </v>
    <v>       0.33293299      -0.00054505       0.00004957 </v>
    <v>       0.66654717      -0.00003809      -0.00002171 </v>
    <v>       0.00027451       0.00016001      -0.00020103 </v>
    <v>       0.00132022       0.66991091      -0.00006297 </v>
    <v>       0.33184807       0.32948677       0.00010249 </v>
    <v>       0.33526072       0.67082168       0.00015072 </v>
    <v>       0.10960159       0.22516408       0.95186176 </v>
    <v>       0.22280596       0.11220997       0.04931450 </v>
    <v>       0.10917993       0.55170744       0.95206781 </v>
    <v>       0.21864731       0.44274335       0.04785734 </v>
    <v>       0.11042127       0.88768109       0.95063122 </v>
    <v>       0.22171374       0.77667844       0.04941470 </v>
    <v>       0.44832788       0.22491988       0.95187057 </v>
    <v>       0.55772398       0.11559361       0.04807743 </v>
    <v>       0.44787140       0.55709770       0.95215906 </v>
    <v>       0.55876597       0.44586711       0.04676259 </v>
    <v>       0.44374681       0.88769566       0.95065417 </v>
    <v>       0.55670097       0.77443770       0.04812863 </v>
    <v>       0.77982295       0.22670246       0.95305432 </v>
    <v>       0.89099618       0.11556535       0.04806670 </v>
    <v>       0.77441207       0.55401087       0.95328822 </v>
    <v>       0.88733023       0.44103464       0.04668704 </v>
    <v>       0.77550370       0.88426570       0.95192169 </v>
    <v>       0.88456688       0.77468127       0.04813230 </v>
   </varray>
  </structure>
  <varray name="forces" >
   <v>       0.23974656      -0.33429244       0.07565722 </v>
   <v>       0.12455710      -0.28696193       0.08523881 </v>
   <v>      -0.18477317       0.29173633      -0.08659648 </v>
   <v>       0.04160387      -0.27556165       0.00583812 </v>
   <v>       0.01234700      -0.21926349       0.01330351 </v>
   <v>       0.13542184       0.15976884      -0.01129263 </v>
   <v>      -0.14523018       0.58553074      -0.08513857 </v>
   <v>       0.26835050      -0.51030997       0.06390209 </v>
   <v>      -0.43299679       0.49705157      -0.08457250 </v>
   <v>      -0.09234063       0.02459471      -0.63307009 </v>
   <v>      -0.00894704       0.01717335       0.70315325 </v>
   <v>       0.01680158      -0.05477529      -0.25064217 </v>
   <v>      -0.02603185      -0.03842474       0.20891704 </v>
   <v>       0.00626234      -0.02620618      -0.74292167 </v>
   <v>       0.01840494      -0.01980333       0.73796317 </v>
   <v>       0.02282407       0.10579743      -0.55398071 </v>
   <v>      -0.05714279       0.14160855       0.53701806 </v>
   <v>       0.02603503       0.03172267      -0.16953185 </v>
   <v>       0.01904121       0.05489333       0.24714224 </v>
   <v>       0.00636239      -0.01992039      -0.70053025 </v>
   <v>       0.09950796      -0.01426300       0.63595043 </v>
   <v>      -0.04339701       0.09446842      -0.48908699 </v>
   <v>      -0.06492069       0.11453854       0.50215346 </v>
   <v>      -0.00875329      -0.05789005      -0.21174213 </v>
   <v>      -0.00532985      -0.03209820       0.18645393 </v>
   <v>       0.06060007      -0.12213159      -0.54436246 </v>
   <v>      -0.02800318      -0.10698221       0.56077718 </v>
  </varray>
  <varray name="stress" >
   <v>     -10.17989932       0.03567599      -0.04734298 </v>
   <v>       0.03567591      -9.85979209       0.12769610 </v>
   <v>      -0.04734311       0.12769615       6.47702680 </v>
  </varray>
  <energy>
   <i name="e_fr_energy">   -189.79122554 </i>
   <i name="e_wo_entrp">   -189.67466574 </i>
   <i name="e_0_energy">     -0.23311959 </i>
  </energy>
  <time name="totalsc">  373.94  375.23</time>
 </calculation>
 <calculation>
  <scstep>
   <time name="dav">   21.60   21.65</time>
   <time name="total">   22.12   22.17</time>
   <energy>
    <i name="alphaZ">     85.80207063 </i>
    <i name="ewald">  42824.56096682 </i>
    <i name="hartreedc"> -48841.16839130 </i>
    <i name="XCdc">   -232.96639344 </i>
    <i name="pawpsdc">   4038.77733700 </i>
    <i name="pawaedc">  -3454.48395031 </i>
    <i name="eentropy">     -0.19156259 </i>
    <i name="bandstr">  -1373.13911085 </i>
    <i name="atom">   6761.44252427 </i>
    <i name="e_fr_energy">   -191.36650977 </i>
    <i name="e_wo_entrp">   -191.17494717 </i>
    <i name="e_0_energy">   -191.27072847 </i>
   </energy>
  </scstep>
  <scstep>
   <time name="dav">   32.39   32.47</time>
   <time name="total">   32.90   32.99</time>
   <energy>
    <i name="e_fr_energy">   -191.18331377 </i>
    <i name="e_wo_entrp">   -190.99345891 </i>
    <i name="e_0_energy">   -191.08838634 </i>
   </energy>
  </scstep>
  <scstep>
   <time name="dav">   29.88   29.95</time>
   <time name="total">   30.39   30.47</time>
   <energy>
    <i name="e_fr_energy">   -191.33756248 </i>
    <i name="e_wo_entrp">   -191.11347396 </i>
    <i name="e_0_energy">   -191.22551822 </i>
   </energy>
  </scstep>
  <scstep>
   <time name="dav">   30.27   30.35</time>
   <time name="total">   30.79   30.87</time>
   <energy>
    <i name="e_fr_energy">   -190.93845533 </i>
    <i name="e_wo_entrp">   -190.74698655 </i>
    <i name="e_0_energy">   -190.84272094 </i>
   </energy>
  </scstep>
  <scstep>
   <time name="dav">   30.14   30.22</time>
   <time name="total">   30.66   30.74</time>
   <energy>
    <i name="e_fr_energy">   -190.89865369 </i>
    <i name="e_wo_entrp">   -190.70395995 </i>
    <i name="e_0_energy">   -190.80130682 </i>
   </energy>
  </scstep>
  <scstep>
   <time name="dav">   30.15   30.22</time>
   <time name="total">   30.67   30.75</time>
   <energy>
    <i name="e_fr_energy">   -190.80808590 </i>
    <i name="e_wo_entrp">   -190.60952085 </i>
    <i name="e_0_energy">   -190.70880337 </i>
   </energy>
  </scstep>
  <scstep>
   <time name="dav">   30.65   30.73</time>
   <time name="total">   31.17   31.25</time>
   <energy>
    <i name="e_fr_energy">   -190.79669432 </i>
    <i name="e_wo_entrp">   -190.60216797 </i>
    <i name="e_0_energy">   -190.69943115 </i>
   </energy>
  </scstep>
  <scstep>
   <time name="dav">   26.11   26.17</time>
   <time name="total">   26.62   26.69</time>
   <energy>
    <i name="e_fr_energy">   -190.79332956 </i>
    <i name="e_wo_entrp">   -190.59753937 </i>
    <i name="e_0_energy">   -190.69543447 </i>
   </energy>
  </scstep>
  <scstep>
   <time name="dav">   29.91   29.98</time>
   <time name="total">   30.43   30.51</time>
   <energy>
    <i name="e_fr_energy">   -190.79408221 </i>
    <i name="e_wo_entrp">   -190.59829166 </i>
    <i name="e_0_energy">   -190.69618694 </i>
   </energy>
  </scstep>
  <scstep>
   <time name="dav">   27.86   27.92</time>
   <time name="total">   28.37   28.44</time>
   <energy>
    <i name="e_fr_energy">   -190.79356704 </i>
    <i name="e_wo_entrp">   -190.59751776 </i>
    <i name="e_0_energy">   -190.69554240 </i>
   </energy>
  </scstep>
  <scstep>
   <time name="dav">   24.89   24.95</time>
   <time name="total">   25.41   25.48</time>
   <energy>
    <i name="e_fr_energy">   -190.79345274 </i>
    <i name="e_wo_entrp">   -190.59753884 </i>
    <i name="e_0_energy">   -190.69549579 </i>
   </energy>
  </scstep>
  <scstep>
   <time name="dav">   19.96   20.01</time>
   <time name="total">   19.99   20.05</time>
   <energy>
    <i name="alphaZ">     85.80207063 </i>
    <i name="ewald">  42824.56096682 </i>
    <i name="hartreedc"> -48812.59752160 </i>
    <i name="XCdc">   -234.29459570 </i>
    <i name="pawpsdc">   4063.78621751 </i>
    <i name="pawaedc">  -3479.66666557 </i>
    <i name="eentropy">     -0.19596461 </i>
    <i name="bandstr">  -1399.63047719 </i>
    <i name="atom">   6761.44252427 </i>
    <i name="e_fr_energy">   -190.79344544 </i>
    <i name="e_wo_entrp">   -190.59748083 </i>
    <i name="e_0_energy">   -190.69546313 </i>
   </energy>
  </scstep>
  <structure>
   <crystal>
    <varray name="basis" >
     <v>       8.48478452       4.89919261       0.00000000 </v>
     <v>      -8.48648885       4.90211040       0.00000000 </v>
     <v>       0.00000000       0.00000000      30.00000000 </v>
    </varray>
    <i name="volume">   2495.10881679 </i>
    <varray name="rec_basis" >
     <v>       0.05894064       0.10203750       0.00000000 </v>
     <v>      -0.05890556       0.10201701       0.00000000 </v>
     <v>       0.00000000       0.00000000       0.03333333 </v>
    </varray>
   </crystal>
   <varray name="positions" >
    <v>       0.99702290       0.32728847       0.00006445 </v>
    <v>       0.66421506       0.32862424       0.00023640 </v>
    <v>       0.66923503       0.67176120      -0.00010757 </v>
    <v>       0.33122348      -0.00258870       0.00005582 </v>
    <v>       0.66506332      -0.00164468       0.00001169 </v>
    <v>       0.00190242       0.00074110      -0.00020061 </v>
    <v>       0.00467034       0.67418790      -0.00022897 </v>
    <v>       0.32952258       0.32530135       0.00022235 </v>
    <v>       0.33677907       0.67557255      -0.00004129 </v>
    <v>       0.10909547       0.22564169       0.95011084 </v>
    <v>       0.22273472       0.11206888       0.05124866 </v>
    <v>       0.10870825       0.55088992       0.95113807 </v>
    <v>       0.21793389       0.44243973       0.04868521 </v>
    <v>       0.11042356       0.88777302       0.94860790 </v>
    <v>       0.22174875       0.77671478       0.05144172 </v>
    <v>       0.44938809       0.22545830       0.95029279 </v>
    <v>       0.55850065       0.11686511       0.04960114 </v>
    <v>       0.44852321       0.55734572       0.95141413 </v>
    <v>       0.55961850       0.44637609       0.04764922 </v>
    <v>       0.44380894       0.88784099       0.94872502 </v>
    <v>       0.55733919       0.77404225       0.04988486 </v>
    <v>       0.78034225       0.22762539       0.95165737 </v>
    <v>       0.89155042       0.11668963       0.04951038 </v>
    <v>       0.77358155       0.55345089       0.95247586 </v>
    <v>       0.88692978       0.44047864       0.04743994 </v>
    <v>       0.77485913       0.88310220       0.95038362 </v>
    <v>       0.88349389       0.77416782       0.04972091 </v>
   </varray>
  </structure>
  <varray name="forces" >
   <v>       0.30254145      -0.37812052       0.07251083 </v>
   <v>       0.09797876      -0.27175467       0.04951027 </v>
   <v>      -0.19072466       0.30726133      -0.07811480 </v>
   <v>       0.04283352      -0.34100740      -0.01291125 </v>
   <v>       0.02114721      -0.26038281       0.01362679 </v>
   <v>       0.16158341       0.20456272       0.02650588 </v>
   <v>      -0.13530102       0.60532432      -0.02016813 </v>
   <v>       0.31133602      -0.57047237       0.00369940 </v>
   <v>      -0.51508393       0.54827743      -0.03796427 </v>
   <v>      -0.01378617      -0.03554463      -0.49191501 </v>
   <v>       0.04919558      -0.05506272       0.53995169 </v>
   <v>      -0.00432849       0.00559324      -0.11180817 </v>
   <v>      -0.02000512       0.04025087       0.02822519 </v>
   <v>      -0.04011553       0.05431270      -0.59501914 </v>
   <v>      -0.02308655       0.03604181       0.59153955 </v>
   <v>       0.04708896      -0.01280752      -0.37935925 </v>
   <v>      -0.00963296       0.00655600       0.38644999 </v>
   <v>      -0.00441486      -0.03834781       0.01739166 </v>
   <v>      -0.00475966      -0.00110202       0.14651046 </v>
   <v>      -0.05367695       0.08008681      -0.56283750 </v>
   <v>       0.00926290       0.01529862       0.47836675 </v>
   <v>       0.00465239      -0.01416051      -0.37969245 </v>
   <v>      -0.00402982      -0.01790729       0.35880801 </v>
   <v>       0.02186367       0.02378594      -0.08781668 </v>
   <v>      -0.03917772       0.04371264       0.06322063 </v>
   <v>       0.00923261       0.01285428      -0.39223665 </v>
   <v>      -0.02059306       0.01275155       0.37352620 </v>
  </varray>
  <varray name="stress" >
   <v>      -5.87046114      -0.10262820      -0.01588573 </v>
   <v>      -0.10262810      -5.75107482      -0.01263708 </v>
   <v>      -0.01588557      -0.01263704       4.51666537 </v>
  </varray>
  <energy>
   <i name="e_fr_energy">   -190.79344544 </i>
   <i name="e_wo_entrp">   -190.69546313 </i>
   <i name="e_0_energy">     -0.19596461 </i>
  </energy>
  <time name="totalsc">  381.45  382.44</time>
 </calculation>
 <calculation>
  <scstep>
   <time name="dav">   21.61   21.67</time>
   <time name="total">   22.12   22.18</time>
   <energy>
    <i name="alphaZ">     90.22139802 </i>
    <i name="ewald">  44685.23906251 </i>
    <i name="hartreedc"> -50729.30098806 </i>
    <i name="XCdc">   -231.80369786 </i>
    <i name="pawpsdc">   4063.74133075 </i>
    <i name="pawaedc">  -3479.61766408 </i>
    <i name="eentropy">     -0.16451075 </i>
    <i name="bandstr">  -1352.01699343 </i>
    <i name="atom">   6761.44252427 </i>
    <i name="e_fr_energy">   -192.25953862 </i>
    <i name="e_wo_entrp">   -192.09502787 </i>
    <i name="e_0_energy">   -192.17728324 </i>
   </energy>
  </scstep>
  <scstep>
   <time name="dav">   27.45   27.52</time>
   <time name="total">   27.96   28.03</time>
   <energy>
    <i name="e_fr_energy">   -191.99368558 </i>
    <i name="e_wo_entrp">   -191.81707250 </i>
    <i name="e_0_energy">   -191.90537904 </i>
   </energy>
  </scstep>
  <scstep>
   <time name="dav">   29.90   29.97</time>
   <time name="total">   30.41   30.49</time>
   <energy>
    <i name="e_fr_energy">   -192.06451764 </i>
    <i name="e_wo_entrp">   -191.88338042 </i>
    <i name="e_0_energy">   -191.97394903 </i>
   </energy>
  </scstep>
  <scstep>
   <time name="dav">   29.51   29.58</time>
   <time name="total">   30.01   30.09</time>
   <energy>
    <i name="e_fr_energy">   -191.86750473 </i>
    <i name="e_wo_entrp">   -191.68892025 </i>
    <i name="e_0_energy">   -191.77821249 </i>
   </energy>
  </scstep>
  <scstep>
   <time name="dav">   30.26   30.33</time>
   <time name="total">   30.76   30.84</time>
   <energy>
    <i name="e_fr_energy">   -191.60322692 </i>
    <i name="e_wo_entrp">   -191.43343651 </i>
    <i name="e_0_energy">   -191.51833172 </i>
   </energy>
  </scstep>
  <scstep>
   <time name="dav">   30.79   30.86</time>
   <time name="total">   31.29   31.37</time>
   <energy>
    <i name="e_fr_energy">   -191.59146187 </i>
    <i name="e_wo_entrp">   -191.40894245 </i>
    <i name="e_0_energy">   -191.50020216 </i>
   </energy>
  </scstep>
  <scstep>
   <time name="dav">   30.23   30.31</time>
   <time name="total">   30.74   30.82</time>
   <energy>
    <i name="e_fr_energy">   -191.57308365 </i>
    <i name="e_wo_entrp">   -191.40634690 </i>
    <i name="e_0_energy">   -191.48971527 </i>
   </energy>
  </scstep>
  <scstep>
   <time name="dav">   28.90   28.97</time>
   <time name="total">   29.40   29.48</time>
   <energy>
    <i name="e_fr_energy">   -191.56589523 </i>
    <i name="e_wo_entrp">   -191.39429352 </i>
    <i name="e_0_energy">   -191.48009438 </i>
   </energy>
  </scstep>
  <scstep>
   <time name="dav">   29.42   29.49</time>
   <time name="total">   29.93   30.01</time>
   <energy>
    <i name="e_fr_energy">   -191.56480017 </i>
    <i name="e_wo_entrp">   -191.39274974 </i>
    <i name="e_0_energy">   -191.47877495 </i>
   </energy>
  </scstep>
  <scstep>
   <time name="dav">   28.43   28.50</time>
   <time name="total">   28.94   29.02</time>
   <energy>
    <i name="e_fr_energy">   -191.56481907 </i>
    <i name="e_wo_entrp">   -191.39261699 </i>
    <i name="e_0_energy">   -191.47871803 </i>
   </energy>
  </scstep>
  <scstep>
   <time name="dav">   27.44   27.50</time>
   <time name="total">   27.47   27.54</time>
   <energy>
    <i name="alphaZ">     90.22139802 </i>
    <i name="ewald">  44685.23906251 </i>
    <i name="hartreedc"> -50694.37417079 </i>
    <i name="XCdc">   -233.34763088 </i>
    <i name="pawpsdc">   4086.56038372 </i>
    <i name="pawaedc">  -3502.52216494 </i>
    <i name="eentropy">     -0.17241967 </i>
    <i name="bandstr">  -1384.61174395 </i>
    <i name="atom">   6761.44252427 </i>
    <i name="e_fr_energy">   -191.56476172 </i>
    <i name="e_wo_entrp">   -191.39234205 </i>
    <i name="e_0_energy">   -191.47855188 </i>
   </energy>
  </scstep>
  <structure>
   <crystal>
    <varray name="basis" >
     <v>       8.26814447       4.77479668       0.00000000 </v>
     <v>      -8.27543512       4.78738993       0.00000000 </v>
     <v>       0.00000000       0.00000000      30.00000000 </v>
    </varray>
    <i name="volume">   2372.89055198 </i>
    <varray name="rec_basis" >
     <v>       0.06052605       0.10462474       0.00000000 </v>
     <v>      -0.06036684       0.10453256       0.00000000 </v>
     <v>       0.00000000       0.00000000       0.03333333 </v>
    </varray>
   </crystal>
   <varray name="positions" >
    <v>       0.99463611       0.32054933       0.00038137 </v>
    <v>       0.66148351       0.32450231       0.00045605 </v>
    <v>       0.67159532       0.67695239      -0.00044230 </v>
    <v>       0.32725376      -0.00720861       0.00000697 </v>
    <v>       0.66186457      -0.00516836       0.00007347 </v>
    <v>       0.00565683       0.00215244      -0.00008603 </v>
    <v>       0.01140836       0.68273857      -0.00033373 </v>
    <v>       0.32462154       0.31611929       0.00025540 </v>
    <v>       0.33984739       0.68597811      -0.00023996 </v>
    <v>       0.10819735       0.22546640       0.94752838 </v>
    <v>       0.22229750       0.11088270       0.05408209 </v>
    <v>       0.10844258       0.55038106       0.95012779 </v>
    <v>       0.21770571       0.44277020       0.04936220 </v>
    <v>       0.11088788       0.88887967       0.94555218 </v>
    <v>       0.22208515       0.77745859       0.05449899 </v>
    <v>       0.45011373       0.22513775       0.94815813 </v>
    <v>       0.55880813       0.11749980       0.05172911 </v>
    <v>       0.44858630       0.55715925       0.95091977 </v>
    <v>       0.56020574       0.44674305       0.04873684 </v>
    <v>       0.44449976       0.88933491       0.94581244 </v>
    <v>       0.55806574       0.77409016       0.05242072 </v>
    <v>       0.78043608       0.22785243       0.94961143 </v>
    <v>       0.89154812       0.11698273       0.05151349 </v>
    <v>       0.77335224       0.55321172       0.95161396 </v>
    <v>       0.88688433       0.44069985       0.04819370 </v>
    <v>       0.77479054       0.88270564       0.94823239 </v>
    <v>       0.88294018       0.77434308       0.05183504 </v>
   </varray>
  </structure>
  <varray name="forces" >
   <v>       0.34594372      -0.50527691      -0.04909867 </v>
   <v>       0.11703204      -0.33172201       0.02103724 </v>
   <v>      -0.18542665       0.40643136       0.00809924 </v>
   <v>      -0.02935984      -0.08883674      -0.07975881 </v>
   <v>      -0.04933997      -0.11674083      -0.05327572 </v>
   <v>       0.11418516       0.12122360      -0.01395529 </v>
   <v>      -0.14657812       0.43907593       0.04521944 </v>
   <v>       0.31785153      -0.49575150      -0.07018669 </v>
   <v>      -0.35163653       0.39535503       0.11647003 </v>
   <v>       0.06288126      -0.07538799      -0.16888172 </v>
   <v>       0.14206581      -0.11644722       0.26933613 </v>
   <v>      -0.03268109       0.12062769       0.20856941 </v>
   <v>       0.00896586       0.18671268      -0.34441030 </v>
   <v>      -0.08549123       0.09202279      -0.25804601 </v>
   <v>      -0.03681521       0.06282199       0.29725598 </v>
   <v>       0.04186317      -0.13651974      -0.10866793 </v>
   <v>       0.04912863      -0.14787984       0.08476373 </v>
   <v>      -0.11004135      -0.17958725       0.35805517 </v>
   <v>      -0.07244838      -0.10560590      -0.15246822 </v>
   <v>      -0.14867049       0.17047401      -0.28303318 </v>
   <v>      -0.08254933      -0.00184819       0.14409071 </v>
   <v>       0.05446317      -0.08614741      -0.05348254 </v>
   <v>       0.09102552      -0.18771547       0.11825228 </v>
   <v>       0.05454306       0.16337547       0.17164664 </v>
   <v>      -0.04353958       0.15217331      -0.23234527 </v>
   <v>      -0.04510127       0.15597157      -0.07251855 </v>
   <v>       0.01973014       0.10920158       0.09733289 </v>
  </varray>
  <varray name="stress" >
   <v>      -0.24384178      -0.18106970       0.33056171 </v>
   <v>      -0.18106945       0.18826855      -0.33437106 </v>
   <v>       0.33056195      -0.33437099      -0.51276510 </v>
  </varray>
  <energy>
   <i name="e_fr_energy">   -191.56476172 </i>
   <i name="e_wo_entrp">   -191.47855188 </i>
   <i name="e_0_energy">     -0.17241967 </i>
  </energy>
  <time name="totalsc">  361.75  362.69</time>
 </calculation>
 <calculation>
  <scstep>
   <time name="dav">   21.58   21.63</time>
   <time name="total">   22.08   22.14</time>
   <energy>
    <i name="alphaZ">     90.25024206 </i>
    <i name="ewald">  44681.77096156 </i>
    <i name="hartreedc"> -50691.83202525 </i>
    <i name="XCdc">   -233.40293103 </i>
    <i name="pawpsdc">   4086.91437438 </i>
    <i name="pawaedc">  -3502.87251149 </i>
    <i name="eentropy">     -0.16568073 </i>
    <i name="bandstr">  -1383.79318407 </i>
    <i name="atom">   6761.44252427 </i>
    <i name="e_fr_energy">   -191.68823030 </i>
    <i name="e_wo_entrp">   -191.52254957 </i>
    <i name="e_0_energy">   -191.60538994 </i>
   </energy>
  </scstep>
  <scstep>
   <time name="dav">   30.88   30.95</time>
   <time name="total">   31.38   31.46</time>
   <energy>
    <i name="e_fr_energy">   -191.75273936 </i>
    <i name="e_wo_entrp">   -191.56742266 </i>
    <i name="e_0_energy">   -191.66008101 </i>
   </energy>
  </scstep>
  <scstep>
   <time name="dav">   30.55   30.62</time>
   <time name="total">   31.05   31.13</time>
   <energy>
    <i name="e_fr_energy">   -191.70885206 </i>
    <i name="e_wo_entrp">   -191.54301801 </i>
    <i name="e_0_energy">   -191.62593504 </i>
   </energy>
  </scstep>
  <scstep>
   <time name="dav">   28.80   28.87</time>
   <time name="total">   29.31   29.59</time>
   <energy>
    <i name="e_fr_energy">   -191.70812406 </i>
    <i name="e_wo_entrp">   -191.53922144 </i>
    <i name="e_0_energy">   -191.62367275 </i>
   </energy>
  </scstep>
  <scstep>
   <time name="dav">   29.25   29.33</time>
   <time name="total">   29.76   29.84</time>
   <energy>
    <i name="e_fr_energy">   -191.70488254 </i>
    <i name="e_wo_entrp">   -191.53607512 </i>
    <i name="e_0_energy">   -191.62047883 </i>
   </energy>
  </scstep>
  <scstep>
   <time name="dav">   28.28   28.34</time>
   <time name="total">   28.78   28.86</time>
   <energy>
    <i name="e_fr_energy">   -191.70461428 </i>
    <i name="e_wo_entrp">   -191.53513609 </i>
    <i name="e_0_energy">   -191.61987518 </i>
   </energy>
  </scstep>
  <scstep>
   <time name="dav">   28.68   28.75</time>
   <time name="total">   29.18   29.26</time>
   <energy>
    <i name="e_fr_energy">   -191.70407278 </i>
    <i name="e_wo_entrp">   -191.53527988 </i>
    <i name="e_0_energy">   -191.61967633 </i>
   </energy>
  </scstep>
  <scstep>
   <time name="dav">   23.64   23.70</time>
   <time name="total">   24.14   24.21</time>
   <energy>
    <i name="e_fr_energy">   -191.70383827 </i>
    <i name="e_wo_entrp">   -191.53473405 </i>
    <i name="e_0_energy">   -191.61928616 </i>
   </energy>
  </scstep>
  <scstep>
   <time name="dav">   17.58   17.62</time>
   <time name="total">   17.61   17.66</time>
   <energy>
    <i name="alphaZ">     90.25024206 </i>
    <i name="ewald">  44681.77096156 </i>
    <i name="hartreedc"> -50692.70662531 </i>
    <i name="XCdc">   -233.38539953 </i>
    <i name="pawpsdc">   4086.17252409 </i>
    <i name="pawaedc">  -3502.10292006 </i>
    <i name="eentropy">     -0.16883128 </i>
    <i name="bandstr">  -1382.97631057 </i>
    <i name="atom">   6761.44252427 </i>
    <i name="e_fr_energy">   -191.70383476 </i>
    <i name="e_wo_entrp">   -191.53500349 </i>
    <i name="e_0_energy">   -191.61941913 </i>
   </energy>
  </scstep>
  <structure>
   <crystal>
    <varray name="basis" >
     <v>       8.25970929       4.77277859       0.00000000 </v>
     <v>      -8.27164829       4.79342858       0.00000000 </v>
     <v>       0.00000000       0.00000000      30.00000000 </v>
    </varray>
    <i name="volume">   2372.13217444 </i>
    <varray name="rec_basis" >
     <v>       0.06062177       0.10461030       0.00000000 </v>
     <v>      -0.06036062       0.10445931       0.00000000 </v>
     <v>       0.00000000       0.00000000       0.03333333 </v>
    </varray>
   </crystal>
   <varray name="positions" >
    <v>       0.99306773       0.31692078       0.00030358 </v>
    <v>       0.66012195       0.32244508       0.00049155 </v>
    <v>       0.67313325       0.67959720      -0.00043117 </v>
    <v>       0.32669123      -0.00760177      -0.00012280 </v>
    <v>       0.66110514      -0.00563871      -0.00001265 </v>
    <v>       0.00663326       0.00244223      -0.00010800 </v>
    <v>       0.01325370       0.68545511      -0.00026101 </v>
    <v>       0.32300353       0.31260766       0.00014171 </v>
    <v>       0.34084315       0.68908517      -0.00005218 </v>
    <v>       0.10799196       0.22489729       0.94723692 </v>
    <v>       0.22211996       0.10986461       0.05453832 </v>
    <v>       0.10895825       0.55108604       0.95045842 </v>
    <v>       0.21868007       0.44369522       0.04880911 </v>
    <v>       0.11110780       0.88960657       0.94511299 </v>
    <v>       0.22229892       0.77789153       0.05500191 </v>
    <v>       0.44954775       0.22431838       0.94796700 </v>
    <v>       0.55820228       0.11660795       0.05188125 </v>
    <v>       0.44734925       0.55656834       0.95149607 </v>
    <v>       0.55945983       0.44642184       0.04849751 </v>
    <v>       0.44493453       0.89064915       0.94533357 </v>
    <v>       0.55781898       0.77432346       0.05267169 </v>
    <v>       0.78015908       0.22725665       0.94951077 </v>
    <v>       0.89086081       0.11576289       0.05171923 </v>
    <v>       0.77434167       0.55388034       0.95188570 </v>
    <v>       0.88753001       0.44160165       0.04782276 </v>
    <v>       0.77545088       0.88362821       0.94810000 </v>
    <v>       0.88354946       0.77484159       0.05200766 </v>
   </varray>
  </structure>
  <varray name="forces" >
   <v>       0.32309778      -0.50590109      -0.00763844 </v>
   <v>       0.13684966      -0.37964851       0.06432239 </v>
   <v>      -0.17652252       0.44309379      -0.00164112 </v>
   <v>      -0.03020777      -0.04869775      -0.03004907 </v>
   <v>      -0.08105769      -0.10754447      -0.03389501 </v>
   <v>       0.13739073       0.08765736       0.03008693 </v>
   <v>      -0.18188390       0.43590460       0.01785223 </v>
   <v>       0.30832828      -0.48898213      -0.00108964 </v>
   <v>      -0.33667682       0.42973217       0.02778357 </v>
   <v>       0.05062073      -0.07132702      -0.18394321 </v>
   <v>       0.09605393      -0.09777906       0.19521619 </v>
   <v>      -0.00662783       0.08387608       0.26296863 </v>
   <v>       0.00148105       0.12014071      -0.37923357 </v>
   <v>      -0.06689833       0.07002755      -0.20975261 </v>
   <v>      -0.05644872       0.06920492       0.24004392 </v>
   <v>       0.03919408      -0.06919192      -0.16062464 </v>
   <v>       0.03773402      -0.09597467       0.06672221 </v>
   <v>      -0.06460325      -0.13806386       0.39658039 </v>
   <v>      -0.06448244      -0.08589742      -0.22430548 </v>
   <v>      -0.09186939       0.10701833      -0.18817793 </v>
   <v>      -0.05723629       0.03033499       0.13371709 </v>
   <v>       0.03330335      -0.04656165      -0.07679122 </v>
   <v>       0.07578914      -0.14499273       0.08042275 </v>
   <v>       0.03125773       0.11869161       0.22963375 </v>
   <v>      -0.01410955       0.10925811      -0.29444438 </v>
   <v>      -0.03558350       0.11035801      -0.07010422 </v>
   <v>      -0.00689249       0.06526407       0.11634051 </v>
  </varray>
  <varray name="stress" >
   <v>       0.08698738      -0.08583834       0.15067806 </v>
   <v>      -0.08583835       0.16294673      -0.24083746 </v>
   <v>       0.15067777      -0.24083742      -1.11736156 </v>
  </varray>
  <energy>
   <i name="e_fr_energy">   -191.70383476 </i>
   <i name="e_wo_entrp">   -191.61941913 </i>
   <i name="e_0_energy">     -0.16883128 </i>
  </energy>
  <time name="totalsc">  285.06  286.02</time>
 </calculation>
 <calculation>
  <scstep>
   <time name="dav">   21.59   21.65</time>
   <time name="total">   22.10   22.15</time>
   <energy>
    <i name="alphaZ">     90.13081874 </i>
    <i name="ewald">  44630.33552653 </i>
    <i name="hartreedc"> -50639.68992474 </i>
    <i name="XCdc">   -233.46916287 </i>
    <i name="pawpsdc">   4086.19222659 </i>
    <i name="pawaedc">  -3502.12282990 </i>
    <i name="eentropy">     -0.16268128 </i>
    <i name="bandstr">  -1384.48685916 </i>
    <i name="atom">   6761.44252427 </i>
    <i name="e_fr_energy">   -191.83036181 </i>
    <i name="e_wo_entrp">   -191.66768054 </i>
    <i name="e_0_energy">   -191.74902118 </i>
   </energy>
  </scstep>
  <scstep>
   <time name="dav">   31.06   31.14</time>
   <time name="total">   31.57   31.65</time>
   <energy>
    <i name="e_fr_energy">   -191.87615192 </i>
    <i name="e_wo_entrp">   -191.70127830 </i>
    <i name="e_0_energy">   -191.78871511 </i>
   </energy>
  </scstep>
  <scstep>
   <time name="dav">   30.67   30.74</time>
   <time name="total">   31.17   31.25</time>
   <energy>
    <i name="e_fr_energy">   -191.85124862 </i>
    <i name="e_wo_entrp">   -191.68993218 </i>
    <i name="e_0_energy">   -191.77059040 </i>
   </energy>
  </scstep>
  <scstep>
   <time name="dav">   28.93   29.00</time>
   <time name="total">   29.44   29.52</time>
   <energy>
    <i name="e_fr_energy">   -191.84763496 </i>
    <i name="e_wo_entrp">   -191.68315555 </i>
    <i name="e_0_energy">   -191.76539525 </i>
   </energy>
  </scstep>
  <scstep>
   <time name="dav">   29.87   29.94</time>
   <time name="total">   30.37   30.45</time>
   <energy>
    <i name="e_fr_energy">   -191.84715705 </i>
    <i name="e_wo_entrp">   -191.68299380 </i>
    <i name="e_0_energy">   -191.76507543 </i>
   </energy>
  </scstep>
  <scstep>
   <time name="dav">   29.56   29.63</time>
   <time name="total">   30.06   30.14</time>
   <energy>
    <i name="e_fr_energy">   -191.84617789 </i>
    <i name="e_wo_entrp">   -191.68202882 </i>
    <i name="e_0_energy">   -191.76410336 </i>
   </energy>
  </scstep>
  <scstep>
   <time name="dav">   26.07   26.13</time>
   <time name="total">   26.57   26.64</time>
   <energy>
    <i name="e_fr_energy">   -191.84524883 </i>
    <i name="e_wo_entrp">   -191.68111190 </i>
    <i name="e_0_energy">   -191.76318037 </i>
   </energy>
  </scstep>
  <scstep>
   <time name="dav">   20.52   20.57</time>
   <time name="total">   20.56   20.61</time>
   <energy>
    <i name="alphaZ">     90.13081874 </i>
    <i name="ewald">  44630.33552653 </i>
    <i name="hartreedc"> -50641.25292328 </i>
    <i name="XCdc">   -233.40661477 </i>
    <i name="pawpsdc">   4088.51521789 </i>
    <i name="pawaedc">  -3504.46728356 </i>
    <i name="eentropy">     -0.16399801 </i>
    <i name="bandstr">  -1382.97853704 </i>
    <i name="atom">   6761.44252427 </i>
    <i name="e_fr_energy">   -191.84526924 </i>
    <i name="e_wo_entrp">   -191.68127123 </i>
[...]
      <set comment="kpoint 31">
       <r>  -17.5257    1.0000 </r>
       <r>  -17.3031    1.0000 </r>
       <r>  -16.9094    1.0000 </r>
       <r>  -16.7040    1.0000 </r>
       <r>  -16.4953    1.0000 </r>
       <r>  -16.4349    1.0000 </r>
       <r>  -16.3346    1.0000 </r>
       <r>  -16.2462    1.0000 </r>
       <r>  -16.0649    1.0000 </r>
       <r>  -15.9977    1.0000 </r>
       <r>  -15.9587    1.0000 </r>
       <r>  -15.8639    1.0000 </r>
       <r>  -15.7737    1.0000 </r>
       <r>  -15.6784    1.0000 </r>
       <r>  -15.6029    1.0000 </r>
       <r>  -15.5557    1.0000 </r>
       <r>  -15.3182    1.0000 </r>
       <r>  -15.2401    1.0000 </r>
       <r>   -9.8041    1.0000 </r>
       <r>   -9.5102    1.0000 </r>
       <r>   -9.2794    1.0000 </r>
       <r>   -9.0122    1.0000 </r>
       <r>   -8.9117    1.0000 </r>
       <r>   -8.6842    1.0000 </r>
       <r>   -8.5409    1.0000 </r>
       <r>   -8.4589    1.0000 </r>
       <r>   -8.4044    1.0000 </r>
       <r>   -8.3219    1.0000 </r>
       <r>   -8.2919    1.0000 </r>
       <r>   -8.2160    1.0000 </r>
       <r>   -8.1570    1.0000 </r>
       <r>   -8.1074    1.0000 </r>
       <r>   -8.0353    1.0000 </r>
       <r>   -7.8812    1.0000 </r>
       <r>   -7.7662    1.0000 </r>
       <r>   -7.7084    1.0000 </r>
       <r>   -7.6292    1.0000 </r>
       <r>   -7.3956    1.0000 </r>
       <r>   -7.3593    1.0000 </r>
       <r>   -7.2210    1.0000 </r>
       <r>   -7.1684    1.0000 </r>
       <r>   -7.1162    1.0000 </r>
       <r>   -7.0706    1.0000 </r>
       <r>   -6.8619    1.0000 </r>
       <r>   -6.8456    1.0000 </r>
       <r>   -6.7776    1.0000 </r>
       <r>   -6.6288    1.0000 </r>
       <r>   -6.5996    1.0000 </r>
       <r>   -6.5351    1.0000 </r>
       <r>   -6.4881    1.0000 </r>
       <r>   -6.4114    1.0000 </r>
       <r>   -6.3806    1.0000 </r>
       <r>   -6.2570    1.0000 </r>
       <r>   -6.2090    1.0000 </r>
       <r>   -6.1249    1.0000 </r>
       <r>   -6.0586    1.0000 </r>
       <r>   -6.0139    1.0000 </r>
       <r>   -5.9316    1.0000 </r>
       <r>   -5.8796    1.0000 </r>
       <r>   -5.7676    1.0000 </r>
       <r>   -5.6576    1.0000 </r>
       <r>   -5.5787    1.0000 </r>
       <r>   -5.4976    1.0000 </r>
       <r>   -5.4246    1.0000 </r>
       <r>   -5.3021    1.0000 </r>
       <r>   -5.2055    1.0000 </r>
       <r>   -5.0789    1.0000 </r>
       <r>   -4.8342    1.0000 </r>
       <r>   -4.8142    1.0000 </r>
       <r>   -4.5817    1.0000 </r>
       <r>   -4.5614    1.0000 </r>
       <r>   -4.4630    1.0000 </r>
       <r>   -4.3536    1.0000 </r>
       <r>   -4.2504    1.0000 </r>
       <r>   -4.1554    1.0000 </r>
       <r>   -4.0954    1.0000 </r>
       <r>   -4.0102    1.0000 </r>
       <r>   -3.6873    0.9995 </r>
       <r>   -3.5384    0.9871 </r>
       <r>   -3.1030    0.1977 </r>
       <r>   -2.9649    0.0339 </r>
       <r>   -2.7955    0.0012 </r>
       <r>   -2.6758    0.0001 </r>
       <r>   -2.5568    0.0000 </r>
       <r>   -2.4657    0.0000 </r>
       <r>   -2.3737    0.0000 </r>
       <r>   -2.0740    0.0000 </r>
       <r>   -2.0316    0.0000 </r>
       <r>   -1.9991    0.0000 </r>
       <r>   -1.8698    0.0000 </r>
       <r>   -1.6979    0.0000 </r>
       <r>   -1.5863    0.0000 </r>
       <r>   -1.5083    0.0000 </r>
       <r>   -1.4324    0.0000 </r>
       <r>   -1.3219    0.0000 </r>
       <r>   -1.1940    0.0000 </r>
       <r>   -1.0719    0.0000 </r>
       <r>   -1.0448    0.0000 </r>
       <r>   -0.9700    0.0000 </r>
       <r>   -0.8920    0.0000 </r>
       <r>   -0.8393    0.0000 </r>
       <r>   -0.7027    0.0000 </r>
       <r>   -0.6510    0.0000 </r>
       <r>   -0.6210    0.0000 </r>
       <r>   -0.4417    0.0000 </r>
       <r>   -0.2970    0.0000 </r>
       <r>   -0.1648    0.0000 </r>
       <r>   -0.0146    0.0000 </r>
       <r>    0.0449    0.0000 </r>
       <r>    0.1205    0.0000 </r>
       <r>    0.4514    0.0000 </r>
       <r>    0.7129    0.0000 </r>
       <r>    0.8044    0.0000 </r>
       <r>    0.9025    0.0000 </r>
       <r>    1.0634    0.0000 </r>
       <r>    1.2129    0.0000 </r>
       <r>    1.2849    0.0000 </r>
       <r>    2.1318    0.0000 </r>
       <r>    2.3172    0.0000 </r>
       <r>    2.3812    0.0000 </r>
      </set>
      <set comment="kpoint 32">
       <r>  -17.5364    1.0000 </r>
       <r>  -17.2270    1.0000 </r>
       <r>  -17.0324    1.0000 </r>
       <r>  -16.6972    1.0000 </r>
       <r>  -16.4594    1.0000 </r>
       <r>  -16.3720    1.0000 </r>
       <r>  -16.3291    1.0000 </r>
       <r>  -16.2489    1.0000 </r>
       <r>  -16.1226    1.0000 </r>
       <r>  -16.0440    1.0000 </r>
       <r>  -15.9424    1.0000 </r>
       <r>  -15.8559    1.0000 </r>
       <r>  -15.7749    1.0000 </r>
       <r>  -15.6788    1.0000 </r>
       <r>  -15.5722    1.0000 </r>
       <r>  -15.5159    1.0000 </r>
       <r>  -15.3521    1.0000 </r>
       <r>  -15.2436    1.0000 </r>
       <r>   -9.7485    1.0000 </r>
       <r>   -9.5775    1.0000 </r>
       <r>   -9.3968    1.0000 </r>
       <r>   -8.9729    1.0000 </r>
       <r>   -8.7393    1.0000 </r>
       <r>   -8.6282    1.0000 </r>
       <r>   -8.5318    1.0000 </r>
       <r>   -8.4616    1.0000 </r>
       <r>   -8.4111    1.0000 </r>
       <r>   -8.3797    1.0000 </r>
       <r>   -8.3041    1.0000 </r>
       <r>   -8.2452    1.0000 </r>
       <r>   -8.1344    1.0000 </r>
       <r>   -8.1032    1.0000 </r>
       <r>   -8.0476    1.0000 </r>
       <r>   -7.9176    1.0000 </r>
       <r>   -7.7992    1.0000 </r>
       <r>   -7.7749    1.0000 </r>
       <r>   -7.6252    1.0000 </r>
       <r>   -7.4360    1.0000 </r>
       <r>   -7.3492    1.0000 </r>
       <r>   -7.2434    1.0000 </r>
       <r>   -7.1984    1.0000 </r>
       <r>   -7.1414    1.0000 </r>
       <r>   -7.0246    1.0000 </r>
       <r>   -6.8829    1.0000 </r>
       <r>   -6.8423    1.0000 </r>
       <r>   -6.7193    1.0000 </r>
       <r>   -6.6572    1.0000 </r>
       <r>   -6.5970    1.0000 </r>
       <r>   -6.5153    1.0000 </r>
       <r>   -6.4564    1.0000 </r>
       <r>   -6.4009    1.0000 </r>
       <r>   -6.3600    1.0000 </r>
       <r>   -6.2658    1.0000 </r>
       <r>   -6.2259    1.0000 </r>
       <r>   -6.1319    1.0000 </r>
       <r>   -6.0228    1.0000 </r>
       <r>   -5.9690    1.0000 </r>
       <r>   -5.8830    1.0000 </r>
       <r>   -5.8451    1.0000 </r>
       <r>   -5.7035    1.0000 </r>
       <r>   -5.6188    1.0000 </r>
       <r>   -5.5799    1.0000 </r>
       <r>   -5.5007    1.0000 </r>
       <r>   -5.4168    1.0000 </r>
       <r>   -5.3706    1.0000 </r>
       <r>   -5.1957    1.0000 </r>
       <r>   -5.1451    1.0000 </r>
       <r>   -4.8647    1.0000 </r>
       <r>   -4.7562    1.0000 </r>
       <r>   -4.6589    1.0000 </r>
       <r>   -4.5074    1.0000 </r>
       <r>   -4.4674    1.0000 </r>
       <r>   -4.4029    1.0000 </r>
       <r>   -4.2658    1.0000 </r>
       <r>   -4.1959    1.0000 </r>
       <r>   -4.0954    1.0000 </r>
       <r>   -3.9332    1.0000 </r>
       <r>   -3.6722    0.9993 </r>
       <r>   -3.5316    0.9854 </r>
       <r>   -3.1574    0.3210 </r>
       <r>   -2.9068    0.0126 </r>
       <r>   -2.8309    0.0028 </r>
       <r>   -2.7239    0.0002 </r>
       <r>   -2.5694    0.0000 </r>
       <r>   -2.5091    0.0000 </r>
       <r>   -2.3688    0.0000 </r>
       <r>   -2.1155    0.0000 </r>
       <r>   -2.0642    0.0000 </r>
       <r>   -2.0115    0.0000 </r>
       <r>   -1.9379    0.0000 </r>
       <r>   -1.6977    0.0000 </r>
       <r>   -1.5364    0.0000 </r>
       <r>   -1.4321    0.0000 </r>
       <r>   -1.4009    0.0000 </r>
       <r>   -1.2822    0.0000 </r>
       <r>   -1.1809    0.0000 </r>
       <r>   -1.0785    0.0000 </r>
       <r>   -0.9841    0.0000 </r>
       <r>   -0.9543    0.0000 </r>
       <r>   -0.8630    0.0000 </r>
       <r>   -0.7968    0.0000 </r>
       <r>   -0.7360    0.0000 </r>
       <r>   -0.6521    0.0000 </r>
       <r>   -0.6330    0.0000 </r>
       <r>   -0.4918    0.0000 </r>
       <r>   -0.3438    0.0000 </r>
       <r>   -0.2232    0.0000 </r>
       <r>   -0.0332    0.0000 </r>
       <r>    0.0361    0.0000 </r>
       <r>    0.1842    0.0000 </r>
       <r>    0.4839    0.0000 </r>
       <r>    0.5962    0.0000 </r>
       <r>    0.8256    0.0000 </r>
       <r>    0.9175    0.0000 </r>
       <r>    1.0623    0.0000 </r>
       <r>    1.1860    0.0000 </r>
       <r>    1.3983    0.0000 </r>
       <r>    2.1097    0.0000 </r>
       <r>    2.2801    0.0000 </r>
       <r>    2.5803    0.0000 </r>
      </set>
      <set comment="kpoint 33">
       <r>  -17.5112    1.0000 </r>
       <r>  -17.3056    1.0000 </r>
       <r>  -16.9301    1.0000 </r>
       <r>  -16.6879    1.0000 </r>
       <r>  -16.5005    1.0000 </r>
       <r>  -16.4762    1.0000 </r>
       <r>  -16.3356    1.0000 </r>
       <r>  -16.1891    1.0000 </r>
       <r>  -16.1452    1.0000 </r>
       <r>  -16.0631    1.0000 </r>
       <r>  -15.8745    1.0000 </r>
       <r>  -15.8253    1.0000 </r>
       <r>  -15.7794    1.0000 </r>
       <r>  -15.6791    1.0000 </r>
       <r>  -15.5757    1.0000 </r>
       <r>  -15.4760    1.0000 </r>
       <r>  -15.3655    1.0000 </r>
       <r>  -15.2833    1.0000 </r>
       <r>   -9.7893    1.0000 </r>
       <r>   -9.4685    1.0000 </r>
       <r>   -9.3836    1.0000 </r>
       <r>   -8.9411    1.0000 </r>
       <r>   -8.8204    1.0000 </r>
       <r>   -8.7365    1.0000 </r>
       <r>   -8.6185    1.0000 </r>
       <r>   -8.5679    1.0000 </r>
       <r>   -8.4329    1.0000 </r>
       <r>   -8.3217    1.0000 </r>
       <r>   -8.2592    1.0000 </r>
       <r>   -8.1729    1.0000 </r>
       <r>   -8.1143    1.0000 </r>
       <r>   -8.0581    1.0000 </r>
       <r>   -7.9640    1.0000 </r>
       <r>   -7.8989    1.0000 </r>
       <r>   -7.8345    1.0000 </r>
       <r>   -7.7799    1.0000 </r>
       <r>   -7.6202    1.0000 </r>
       <r>   -7.4653    1.0000 </r>
       <r>   -7.3762    1.0000 </r>
       <r>   -7.3169    1.0000 </r>
       <r>   -7.1420    1.0000 </r>
       <r>   -7.0689    1.0000 </r>
       <r>   -6.9653    1.0000 </r>
       <r>   -6.8824    1.0000 </r>
       <r>   -6.8383    1.0000 </r>
       <r>   -6.7690    1.0000 </r>
       <r>   -6.6973    1.0000 </r>
       <r>   -6.5673    1.0000 </r>
       <r>   -6.5158    1.0000 </r>
       <r>   -6.5025    1.0000 </r>
       <r>   -6.4148    1.0000 </r>
       <r>   -6.3357    1.0000 </r>
       <r>   -6.2655    1.0000 </r>
       <r>   -6.2275    1.0000 </r>
       <r>   -6.0755    1.0000 </r>
       <r>   -6.0154    1.0000 </r>
       <r>   -5.9892    1.0000 </r>
       <r>   -5.9578    1.0000 </r>
       <r>   -5.8710    1.0000 </r>
       <r>   -5.6953    1.0000 </r>
       <r>   -5.6449    1.0000 </r>
       <r>   -5.5646    1.0000 </r>
       <r>   -5.5170    1.0000 </r>
       <r>   -5.4014    1.0000 </r>
       <r>   -5.2810    1.0000 </r>
       <r>   -5.2181    1.0000 </r>
       <r>   -4.9596    1.0000 </r>
       <r>   -4.8758    1.0000 </r>
       <r>   -4.8016    1.0000 </r>
       <r>   -4.7152    1.0000 </r>
       <r>   -4.5479    1.0000 </r>
       <r>   -4.4690    1.0000 </r>
       <r>   -4.3796    1.0000 </r>
       <r>   -4.2763    1.0000 </r>
       <r>   -4.1531    1.0000 </r>
       <r>   -4.1088    1.0000 </r>
       <r>   -3.8406    1.0000 </r>
       <r>   -3.7230    0.9998 </r>
       <r>   -3.5775    0.9939 </r>
       <r>   -3.1523    0.3081 </r>
       <r>   -2.9686    0.0360 </r>
       <r>   -2.8553    0.0046 </r>
       <r>   -2.7231    0.0002 </r>
       <r>   -2.6076    0.0000 </r>
       <r>   -2.5307    0.0000 </r>
       <r>   -2.3565    0.0000 </r>
       <r>   -2.1676    0.0000 </r>
       <r>   -2.0973    0.0000 </r>
       <r>   -2.0201    0.0000 </r>
       <r>   -1.9281    0.0000 </r>
       <r>   -1.7100    0.0000 </r>
       <r>   -1.5108    0.0000 </r>
       <r>   -1.3588    0.0000 </r>
       <r>   -1.3369    0.0000 </r>
       <r>   -1.2519    0.0000 </r>
       <r>   -1.1822    0.0000 </r>
       <r>   -1.0794    0.0000 </r>
       <r>   -0.9724    0.0000 </r>
       <r>   -0.8916    0.0000 </r>
       <r>   -0.8566    0.0000 </r>
       <r>   -0.7807    0.0000 </r>
       <r>   -0.7527    0.0000 </r>
       <r>   -0.6767    0.0000 </r>
       <r>   -0.6289    0.0000 </r>
       <r>   -0.4959    0.0000 </r>
       <r>   -0.3962    0.0000 </r>
       <r>   -0.3262    0.0000 </r>
       <r>   -0.0639    0.0000 </r>
       <r>   -0.0210    0.0000 </r>
       <r>    0.2449    0.0000 </r>
       <r>    0.4596    0.0000 </r>
       <r>    0.5820    0.0000 </r>
       <r>    0.8840    0.0000 </r>
       <r>    0.9475    0.0000 </r>
       <r>    1.0514    0.0000 </r>
       <r>    1.2006    0.0000 </r>
       <r>    1.5237    0.0000 </r>
       <r>    2.1482    0.0000 </r>
       <r>    2.3080    0.0000 </r>
       <r>    2.4152    0.0000 </r>
      </set>
      <set comment="kpoint 34">
       <r>  -17.4743    1.0000 </r>
       <r>  -17.3780    1.0000 </r>
       <r>  -16.7951    1.0000 </r>
       <r>  -16.6804    1.0000 </r>
       <r>  -16.6467    1.0000 </r>
       <r>  -16.4926    1.0000 </r>
       <r>  -16.3205    1.0000 </r>
       <r>  -16.1875    1.0000 </r>
       <r>  -16.1500    1.0000 </r>
       <r>  -16.0547    1.0000 </r>
       <r>  -15.8235    1.0000 </r>
       <r>  -15.8214    1.0000 </r>
       <r>  -15.7776    1.0000 </r>
       <r>  -15.6801    1.0000 </r>
       <r>  -15.5804    1.0000 </r>
       <r>  -15.4625    1.0000 </r>
       <r>  -15.3533    1.0000 </r>
       <r>  -15.3244    1.0000 </r>
       <r>   -9.8191    1.0000 </r>
       <r>   -9.3752    1.0000 </r>
       <r>   -9.3152    1.0000 </r>
       <r>   -8.9681    1.0000 </r>
       <r>   -8.9362    1.0000 </r>
       <r>   -8.8149    1.0000 </r>
       <r>   -8.6683    1.0000 </r>
       <r>   -8.5937    1.0000 </r>
       <r>   -8.4329    1.0000 </r>
       <r>   -8.2997    1.0000 </r>
       <r>   -8.2325    1.0000 </r>
       <r>   -8.1515    1.0000 </r>
       <r>   -8.1025    1.0000 </r>
       <r>   -8.0190    1.0000 </r>
       <r>   -7.9176    1.0000 </r>
       <r>   -7.8676    1.0000 </r>
       <r>   -7.8506    1.0000 </r>
       <r>   -7.7335    1.0000 </r>
       <r>   -7.6139    1.0000 </r>
       <r>   -7.5152    1.0000 </r>
       <r>   -7.4004    1.0000 </r>
       <r>   -7.3445    1.0000 </r>
       <r>   -7.1166    1.0000 </r>
       <r>   -7.0420    1.0000 </r>
       <r>   -6.9856    1.0000 </r>
       <r>   -6.8646    1.0000 </r>
       <r>   -6.8194    1.0000 </r>
       <r>   -6.7059    1.0000 </r>
       <r>   -6.6182    1.0000 </r>
       <r>   -6.6009    1.0000 </r>
       <r>   -6.5406    1.0000 </r>
       <r>   -6.5093    1.0000 </r>
       <r>   -6.4328    1.0000 </r>
       <r>   -6.3895    1.0000 </r>
       <r>   -6.2846    1.0000 </r>
       <r>   -6.2575    1.0000 </r>
       <r>   -6.1792    1.0000 </r>
       <r>   -6.0385    1.0000 </r>
       <r>   -5.9994    1.0000 </r>
       <r>   -5.8433    1.0000 </r>
       <r>   -5.8228    1.0000 </r>
       <r>   -5.8004    1.0000 </r>
       <r>   -5.6355    1.0000 </r>
       <r>   -5.5955    1.0000 </r>
       <r>   -5.4877    1.0000 </r>
       <r>   -5.4154    1.0000 </r>
       <r>   -5.2144    1.0000 </r>
       <r>   -5.1178    1.0000 </r>
       <r>   -4.9966    1.0000 </r>
       <r>   -4.9075    1.0000 </r>
       <r>   -4.8305    1.0000 </r>
       <r>   -4.6013    1.0000 </r>
       <r>   -4.5607    1.0000 </r>
       <r>   -4.5262    1.0000 </r>
       <r>   -4.3158    1.0000 </r>
       <r>   -4.2842    1.0000 </r>
       <r>   -4.2151    1.0000 </r>
       <r>   -4.0757    1.0000 </r>
       <r>   -3.7979    1.0000 </r>
       <r>   -3.7435    0.9999 </r>
       <r>   -3.6289    0.9979 </r>
       <r>   -3.1178    0.2282 </r>
       <r>   -3.0042    0.0608 </r>
       <r>   -2.9056    0.0124 </r>
       <r>   -2.6984    0.0001 </r>
       <r>   -2.6309    0.0000 </r>
       <r>   -2.5339    0.0000 </r>
       <r>   -2.3516    0.0000 </r>
       <r>   -2.1932    0.0000 </r>
       <r>   -2.1125    0.0000 </r>
       <r>   -2.0097    0.0000 </r>
       <r>   -1.9167    0.0000 </r>
       <r>   -1.7173    0.0000 </r>
       <r>   -1.5019    0.0000 </r>
       <r>   -1.3308    0.0000 </r>
       <r>   -1.3025    0.0000 </r>
       <r>   -1.2389    0.0000 </r>
       <r>   -1.1794    0.0000 </r>
       <r>   -1.0843    0.0000 </r>
       <r>   -0.9812    0.0000 </r>
       <r>   -0.8948    0.0000 </r>
       <r>   -0.8362    0.0000 </r>
       <r>   -0.7950    0.0000 </r>
       <r>   -0.7413    0.0000 </r>
       <r>   -0.6314    0.0000 </r>
       <r>   -0.6053    0.0000 </r>
       <r>   -0.5760    0.0000 </r>
       <r>   -0.4256    0.0000 </r>
       <r>   -0.3337    0.0000 </r>
       <r>   -0.0951    0.0000 </r>
       <r>   -0.0593    0.0000 </r>
       <r>    0.2681    0.0000 </r>
       <r>    0.4443    0.0000 </r>
       <r>    0.5938    0.0000 </r>
       <r>    0.9317    0.0000 </r>
       <r>    0.9555    0.0000 </r>
       <r>    1.0357    0.0000 </r>
       <r>    1.2249    0.0000 </r>
       <r>    1.5790    0.0000 </r>
       <r>    2.2319    0.0000 </r>
       <r>    2.2699    0.0000 </r>
       <r>    2.3941    0.0000 </r>
      </set>
     </set>
    </set>
   </array>
  </eigenvalues>
  <separator name="orbital magnetization" >
   <v name="MAGDIPOLOUT">      0.00000000      0.00000000      0.00000000</v>
  </separator>
 </calculation>
 <structure name="finalpos" >
  <crystal>
   <varray name="basis" >
    <v>       8.30638553       4.80232710       0.00000000 </v>
    <v>      -8.31914287       4.82446347       0.00000000 </v>
    <v>       0.00000000       0.00000000      30.00000000 </v>
   </varray>
   <i name="volume">   2400.75296395 </i>
   <varray name="rec_basis" >
    <v>       0.06028688       0.10395667       0.00000000 </v>
    <v>      -0.06001026       0.10379725       0.00000000 </v>
    <v>       0.00000000       0.00000000       0.03333333 </v>
   </varray>
  </crystal>
  <varray name="positions" >
   <v>       0.97952247       0.29370064      -0.00237941 </v>
   <v>       0.65006647       0.30085160      -0.00144991 </v>
   <v>       0.68548530       0.70493398       0.00243258 </v>
   <v>       0.32886014      -0.00505637      -0.00026489 </v>
   <v>       0.64593583      -0.00404846      -0.00013461 </v>
   <v>       0.01971510       0.00003028      -0.00007743 </v>
   <v>       0.02021902       0.70183571       0.00143337 </v>
   <v>       0.31772348       0.29727018      -0.00134695 </v>
   <v>       0.34806185       0.70346462       0.00171720 </v>
   <v>       0.10791676       0.21881007       0.94495698 </v>
   <v>       0.22335180       0.10707030       0.05614471 </v>
   <v>       0.10931251       0.55151683       0.95516652 </v>
   <v>       0.21761822       0.44279361       0.04311399 </v>
   <v>       0.11517993       0.89239308       0.94339092 </v>
   <v>       0.22357549       0.78074272       0.05724055 </v>
   <v>       0.44882725       0.22254079       0.94522151 </v>
   <v>       0.55522835       0.11430250       0.05387934 </v>
   <v>       0.44800916       0.55735760       0.95719765 </v>
   <v>       0.55915685       0.44679137       0.04369923 </v>
   <v>       0.44327541       0.89218618       0.94361866 </v>
   <v>       0.55770046       0.78035431       0.05536493 </v>
   <v>       0.77522294       0.22199428       0.94647854 </v>
   <v>       0.88617255       0.10623956       0.05019551 </v>
   <v>       0.77524075       0.55626962       0.95759996 </v>
   <v>       0.88876795       0.44149695       0.04238815 </v>
   <v>       0.77962394       0.89241364       0.94944907 </v>
   <v>       0.88844446       0.77995886       0.05496374 </v>
  </varray>
 </structure>
</modeling>
