unknown system                          
           1
     8.853446    5.105516    0.000000
    -8.854727    5.107721    0.000000
     0.000000    0.000000   30.000000
   V    Mo   W    S 
   3   3   3  18
Direct configuration=     1
   0.66666669  0.66666669  0.00000000
   0.33333334  0.00000000  0.00000000
   0.33333334  0.66666669  0.00000000
   0.66666669  0.00000000  0.00000000
   0.66666669  0.33333334  0.00000000
   1.00000000  0.33333334  0.00000000
   0.00000000  0.00000000  0.00000000
   0.00000000  0.66666669  0.00000000
   0.33333334  0.33333334  0.00000000
   0.11068511  0.22244981  0.95539999
   0.22244981  0.11068511  0.04460000
   0.11068511  0.55578315  0.95539999
   0.22244981  0.44401845  0.04460000
   0.11068511  0.88911647  0.95539999
   0.22244981  0.77735180  0.04460000
   0.44401845  0.22244981  0.95539999
   0.55578315  0.11068511  0.04460000
   0.44401845  0.55578315  0.95539999
   0.55578315  0.44401845  0.04460000
   0.44401845  0.88911647  0.95539999
   0.55578315  0.77735180  0.04460000
   0.77735180  0.22244981  0.95539999
   0.88911647  0.11068511  0.04460000
   0.77735180  0.55578315  0.95539999
   0.88911647  0.44401845  0.04460000
   0.77735180  0.88911647  0.95539999
   0.88911647  0.77735180  0.04460000
unknown system                          
           1
     8.666154    4.999736    0.000000
    -8.667331    5.001762    0.000000
     0.000000    0.000000   30.000000
   V    Mo   W    S 
   3   3   3  18
Direct configuration=     2
   0.66632697  0.66673680 -0.00008808
   0.33565986  0.00076129  0.00008844
   0.33375666  0.66714278  0.00004266
   0.66755533  0.00232604  0.00004626
   0.66818692  0.33190665 -0.00014839
   0.99711853  0.33188866  0.00001536
  -0.00160964  0.00145404  0.00011739
  -0.00113833  0.66371493 -0.00004673
   0.33355171  0.33366141  0.00002002
   0.11150466  0.22183821  0.95074715
   0.22415561  0.10889922  0.04805937
   0.11501551  0.55810444  0.95192952
   0.22472579  0.44828904  0.04800762
   0.11474731  0.89055621  0.95205147
   0.22571507  0.77933995  0.04690690
   0.44178921  0.21818054  0.95195668
   0.55083896  0.10868944  0.04810020
   0.44599905  0.55902650  0.95306134
   0.55666955  0.44834162  0.04797440
   0.43994088  0.88681561  0.95312419
   0.55348098  0.77326909  0.04682820
   0.77768037  0.22223798  0.95065732
   0.88941354  0.11059253  0.04932422
   0.77617338  0.55841960  0.95196720
   0.88939880  0.44538450  0.04929106
   0.77635703  0.88459005  0.95192047
   0.88520074  0.77604732  0.04804566
unknown system                          
           1
     8.485037    4.900737    0.000000
    -8.485148    4.900916    0.000000
     0.000000    0.000000   30.000000
   V    Mo   W    S 
   3   3   3  18
Direct configuration=     3
   0.66627413  0.66673128 -0.00004655
   0.33631652  0.00108391  0.00005146
   0.33384289  0.66722344  0.00009280
   0.66843055  0.00354218  0.00004745
   0.66899325  0.33158173 -0.00016791
   0.99591476  0.33116332  0.00001106
  -0.00196713  0.00217232  0.00007950
  -0.00167155  0.66263695 -0.00011610
   0.33340622  0.33351383  0.00008477
   0.11158841  0.22175476  0.95074629
   0.22405694  0.10896390  0.04800500
   0.11498140  0.55828305  0.95195272
   0.22490353  0.44825257  0.04792538
   0.11457158  0.89049409  0.95227035
   0.22553793  0.77926780  0.04683395
   0.44161918  0.21821156  0.95198465
   0.55070258  0.10859965  0.04819546
   0.44595355  0.55887849  0.95308426
   0.55650653  0.44830689  0.04787898
   0.43988288  0.88675031  0.95316677
   0.55340964  0.77321822  0.04673965
   0.77765538  0.22223139  0.95042992
   0.88954178  0.11048153  0.04948401
   0.77636894  0.55854926  0.95195550
   0.88952036  0.44559779  0.04942946
   0.77650375  0.88461022  0.95193377
   0.88537044  0.77611403  0.04794733
unknown system                          
           1
     8.282535    4.788648    0.000000
    -8.282305    4.788237    0.000000
     0.000000    0.000000   30.000000
   V    Mo   W    S 
   3   3   3  18
Direct configuration=     4
   0.66630934  0.66665086  0.00014116
   0.33856472  0.00254037 -0.00012041
   0.33398571  0.66730491  0.00026109
   0.67255769  0.00861195  0.00003592
   0.67241634  0.33066185 -0.00016236
   0.99105511  0.32799162  0.00000028
  -0.00303014  0.00527341 -0.00010833
  -0.00395931  0.65848952 -0.00033374
   0.33240415  0.33243302  0.00030609
   0.11158064  0.22203006  0.94911330
   0.22432628  0.10833111  0.04928622
   0.11601642  0.55864533  0.95057363
   0.22523182  0.44914743  0.04902388
   0.11523010  0.89092131  0.95172404
   0.22628664  0.77975058  0.04788600
   0.44120168  0.21734546  0.95066817
   0.54960241  0.10800784  0.04998924
   0.44651538  0.55984841  0.95181831
   0.55718762  0.44913259  0.04891514
   0.43919281  0.88623199  0.95205319
   0.55292881  0.77262344  0.04766715
   0.77753125  0.22210721  0.94791898
   0.88946587  0.11055176  0.05178368
   0.77570606  0.55878255  0.95043059
   0.88949520  0.44547444  0.05159849
   0.77571483  0.88363147  0.95052689
   0.88469701  0.77569398  0.04900330
unknown system                          
           1
     8.286558    4.797886    0.000000
    -8.286592    4.797931    0.000000
     0.000000    0.000000   30.000000
   V    Mo   W    S 
   3   3   3  18
Direct configuration=     5
   0.66646677  0.66636075  0.00046002
   0.34316928  0.00560747 -0.00043407
   0.33461083  0.66782908  0.00045534
   0.68022185  0.01755571  0.00000234
   0.67896730  0.32943552 -0.00005570
   0.98209662  0.32185618 -0.00003760
  -0.00512944  0.01208676 -0.00035830
  -0.00849459  0.64978738 -0.00059920
   0.33029547  0.33015660  0.00059827
   0.11120292  0.22317597  0.94692566
   0.22408456  0.10715818  0.05096419
   0.11650976  0.55774159  0.94881375
   0.22425179  0.44949101  0.05031557
   0.11515392  0.89095331  0.95153654
   0.22659598  0.77999328  0.04921066
   0.44184135  0.21708053  0.94903425
   0.54954050  0.10790053  0.05243653
   0.44694748  0.56069637  0.95017831
   0.55821944  0.44916982  0.05005641
   0.43978761  0.88634730  0.95058934
   0.55310846  0.77350338  0.04887682
   0.77734656  0.22195368  0.94419639
   0.88899021  0.11106911  0.05516412
   0.77431049  0.55788371  0.94831429
   0.88919605  0.44450267  0.05461194
   0.77452079  0.88331767  0.94870529
   0.88440251  0.77560088  0.05003872
unknown system                          
           1
     8.284094    4.794856    0.000000
    -8.286242    4.798553    0.000000
     0.000000    0.000000   30.000000
   V    Mo   W    S 
   3   3   3  18
Direct configuration=     6
   0.66645502  0.66607109  0.00048544
   0.34565975  0.00705971 -0.00043232
   0.33520345  0.66854943  0.00051788
   0.68025623  0.01753697 -0.00005029
   0.67930718  0.32960914 -0.00018248
   0.98239106  0.32178800 -0.00007782
  -0.00562649  0.01426577 -0.00023126
  -0.00984657  0.64673998 -0.00063406
   0.32922308  0.32934540  0.00067402
   0.11085180  0.22400291  0.94673106
   0.22342916  0.10670461  0.05090505
   0.11568843  0.55644893  0.94883246
   0.22317790  0.44872333  0.05012563
   0.11392145  0.89039663  0.95221699
   0.22601970  0.77979361  0.04902260
   0.44278059  0.21786019  0.94910583
   0.55049568  0.10832390  0.05255215
   0.44681454  0.56042534  0.95025128
   0.55821847  0.44818399  0.04986403
   0.44099032  0.88702426  0.95061589
   0.55381871  0.77477545  0.04878087
   0.77722687  0.22202730  0.94388948
   0.88890271  0.11139204  0.05550472
   0.77390452  0.55698474  0.94823138
   0.88923603  0.44384067  0.05490721
   0.77455136  0.88422007  0.94872039
   0.88516350  0.77612098  0.04967376
unknown system                          
           1
     8.287676    4.797164    0.000000
    -8.291540    4.803827    0.000000
     0.000000    0.000000   30.000000
   V    Mo   W    S 
   3   3   3  18
Direct configuration=     7
   0.66652258  0.66589748  0.00052934
   0.34825849  0.00845597 -0.00043566
   0.33577301  0.66929893  0.00059384
   0.68070529  0.01817807 -0.00008922
   0.68009189  0.32964456 -0.00020071
   0.98192983  0.32122109 -0.00011483
  -0.00614044  0.01634348 -0.00023635
  -0.01121675  0.64378791 -0.00066753
   0.32797391  0.32852680  0.00073448
   0.11071886  0.22441476  0.94653027
   0.22304371  0.10637962  0.05087337
   0.11538882  0.55577020  0.94876828
   0.22275492  0.44849737  0.05003527
   0.11318896  0.89001541  0.95285808
   0.22566318  0.77971884  0.04885292
   0.44321706  0.21826009  0.94909909
   0.55090251  0.10857760  0.05270565
   0.44675378  0.56028126  0.95031193
   0.55806706  0.44765144  0.04971936
   0.44156424  0.88736939  0.95056825
   0.55413745  0.77529827  0.04872978
   0.77721374  0.22203689  0.94369337
   0.88870032  0.11163913  0.05580179
   0.77362727  0.55651571  0.94809870
   0.88909135  0.44332722  0.05514675
   0.77466155  0.88469440  0.94870616
   0.88562188  0.77641256  0.04938751
unknown system                          
           1
     8.289958    4.798643    0.000000
    -8.298731    4.813785    0.000000
     0.000000    0.000000   30.000000
   V    Mo   W    S 
   3   3   3  18
Direct configuration=     8
   0.66662020  0.66576054  0.00057607
   0.35050185  0.00960704 -0.00045264
   0.33629350  0.66999931  0.00065605
   0.68080992  0.01849388 -0.00010630
   0.68059603  0.32966381 -0.00022776
   0.98181154  0.32089776 -0.00012973
  -0.00653427  0.01778707 -0.00022579
  -0.01224175  0.64160500 -0.00073280
   0.32679374  0.32787119  0.00079358
   0.11064446  0.22473346  0.94633602
   0.22274049  0.10610799  0.05081991
   0.11521897  0.55531130  0.94872021
   0.22254427  0.44842420  0.04996512
   0.11267592  0.88972756  0.95344058
   0.22540097  0.77969710  0.04869313
   0.44350028  0.21855928  0.94910755
   0.55116923  0.10875691  0.05285041
   0.44669927  0.56018766  0.95037866
   0.55787858  0.44726004  0.04958254
   0.44193273  0.88762444  0.95051340
   0.55435704  0.77558438  0.04868806
   0.77720121  0.22205389  0.94355391
   0.88850600  0.11181792  0.05601987
   0.77340206  0.55616238  0.94799874
   0.88895369  0.44285905  0.05535130
   0.77473992  0.88503428  0.94869126
   0.88599862  0.77662702  0.04913855
unknown system                          
           1
     8.302843    4.807098    0.000000
    -8.312784    4.824261    0.000000
     0.000000    0.000000   30.000000
   V    Mo   W    S 
   3   3   3  18
Direct configuration=     9
   0.66710799  0.66548747  0.00071803
   0.35733243  0.01291936 -0.00051313
   0.33806944  0.67238403  0.00082476
   0.68072549  0.01926427 -0.00014320
   0.68215269  0.32956661 -0.00027194
   0.98169788  0.31996127 -0.00016805
  -0.00778072  0.02148416 -0.00022194
  -0.01509660  0.63563221 -0.00094089
   0.32259188  0.32594225  0.00094856
   0.11046043  0.22545581  0.94580462
   0.22189913  0.10536934  0.05055334
   0.11489753  0.55416110  0.94863515
   0.22221726  0.44850752  0.04975548
   0.11145389  0.88894703  0.95530320
   0.22466393  0.77972210  0.04812402
   0.44418932  0.21944676  0.94922047
   0.55188961  0.10931893  0.05326597
   0.44650713  0.55990121  0.95067085
   0.55707120  0.44613503  0.04907186
   0.44286048  0.88835843  0.95032989
   0.55493929  0.77612066  0.04854932
   0.77724356  0.22209409  0.94328965
   0.88781836  0.11226722  0.05653788
   0.77274881  0.55515095  0.94776160
   0.88847339  0.44147332  0.05582625
   0.77500772  0.88598311  0.94871247
   0.88707296  0.77716021  0.04835567
unknown system                          
           1
     8.303343    4.808906    0.000000
    -8.314361    4.827935    0.000000
     0.000000    0.000000   30.000000
   V    Mo   W    S 
   3   3   3  18
Direct configuration=    10
   0.66766119  0.66559752  0.00078213
   0.35979291  0.01396581 -0.00055849
   0.33917319  0.67381642  0.00085138
   0.68031870  0.01934222 -0.00012053
   0.68289179  0.32934927 -0.00026080
   0.98203855  0.31962713 -0.00015838
  -0.00838030  0.02219028 -0.00019996
  -0.01586357  0.63402971 -0.00103873
   0.31974327  0.32503107  0.00097979
   0.11034310  0.22564171  0.94548536
   0.22155463  0.10500335  0.05041179
   0.11497275  0.55374770  0.94858806
   0.22220347  0.44890568  0.04975722
   0.11129509  0.88872515  0.95617780
   0.22444109  0.77988249  0.04785200
   0.44451447  0.21994826  0.94932524
   0.55234843  0.10969166  0.05352755
   0.44640463  0.55981851  0.95082464
   0.55646287  0.44554941  0.04876505
   0.44326670  0.88870614  0.95015095
   0.55523560  0.77619242  0.04854818
   0.77734042  0.22207203  0.94318406
   0.88736166  0.11242141  0.05673960
   0.77234088  0.55460384  0.94764216
   0.88821684  0.44076158  0.05601773
   0.77503490  0.88629861  0.94868156
   0.88750120  0.77729510  0.04804454
unknown system                          
           1
     8.308479    4.813046    0.000000
    -8.318182    4.829809    0.000000
     0.000000    0.000000   30.000000
   V    Mo   W    S 
   3   3   3  18
Direct configuration=    11
   0.66862884  0.66599984  0.00085995
   0.36324498  0.01542168 -0.00061032
   0.34083288  0.67590033  0.00085931
   0.67978384  0.01956179 -0.00010074
   0.68419382  0.32899884 -0.00023864
   0.98239650  0.31907672 -0.00015977
  -0.00932583  0.02338348 -0.00018813
  -0.01708217  0.63142556 -0.00117665
   0.31545091  0.32366541  0.00103219
   0.11004915  0.22567348  0.94513104
   0.22110468  0.10463654  0.05017168
   0.11499959  0.55324085  0.94861798
   0.22217548  0.44944123  0.04972245
   0.11111026  0.88844104  0.95735512
   0.22419359  0.78009920  0.04745433
   0.44494074  0.22067565  0.94957716
   0.55296349  0.11020725  0.05378606
   0.44623928  0.55965646  0.95109624
   0.55550195  0.44463857  0.04822869
   0.44385941  0.88923896  0.94996213
   0.55565756  0.77630076  0.04850656
   0.77752013  0.22201784  0.94314199
   0.88678907  0.11256721  0.05692306
   0.77190885  0.55385338  0.94757160
   0.88796333  0.43996166  0.05616468
   0.77507941  0.88672513  0.94868797
   0.88803471  0.77740558  0.04762396
unknown system                          
           1
     8.312895    4.817115    0.000000
    -8.321667    4.832276    0.000000
     0.000000    0.000000   30.000000
   V    Mo   W    S 
   3   3   3  18
Direct configuration=    12
   0.66930670  0.66662976  0.00086626
   0.36315408  0.01527856 -0.00061648
   0.34142331  0.67651144  0.00079344
   0.67945275  0.01936567 -0.00007849
   0.68451722  0.32878783 -0.00020737
   0.98268389  0.31906762 -0.00014147
  -0.00956601  0.02293317 -0.00018231
  -0.01690881  0.63167203 -0.00118456
   0.31398088  0.32332801  0.00102215
   0.10980167  0.22540193  0.94502971
   0.22105322  0.10462573  0.05013922
   0.11514406  0.55326996  0.94864942
   0.22217099  0.44977653  0.04979745
   0.11136968  0.88851831  0.95745972
   0.22432293  0.78024196  0.04740969
   0.44501103  0.22090926  0.94971662
   0.55314053  0.11037013  0.05382482
   0.44618278  0.55961401  0.95116915
   0.55506996  0.44433639  0.04800135
   0.44398327  0.88936273  0.94988729
   0.55577150  0.77625479  0.04854379
   0.77764109  0.22193188  0.94315372
   0.88664594  0.11251961  0.05691008
   0.77184052  0.55366630  0.94759380
   0.88803048  0.43993228  0.05614472
   0.77496320  0.88662649  0.94864541
   0.88802758  0.77728208  0.04765277
unknown system                          
           1
     8.313991    4.819006    0.000000
    -8.321720    4.832371    0.000000
     0.000000    0.000000   30.000000
   V    Mo   W    S 
   3   3   3  18
Direct configuration=    13
   0.67031701  0.66759107  0.00089170
   0.36409948  0.01556928 -0.00062984
   0.34243225  0.67760911  0.00073284
   0.67900130  0.01916568 -0.00005981
   0.68522678  0.32850559 -0.00017980
   0.98301542  0.31892635 -0.00012587
  -0.01007037  0.02291810 -0.00017492
  -0.01710693  0.63106765 -0.00123517
   0.31147573  0.32263241  0.00104253
   0.10942983  0.22511006  0.94483683
   0.22083096  0.10450698  0.05005580
   0.11528660  0.55317406  0.94869445
   0.22212777  0.45021063  0.04985084
   0.11148916  0.88848823  0.95783963
   0.22439687  0.78041822  0.04727271
   0.44517550  0.22133351  0.94991951
   0.55342438  0.11063420  0.05392384
   0.44606897  0.55951198  0.95131156
   0.55440688  0.44380029  0.04761872
   0.44423486  0.88961365  0.94977282
   0.55595816  0.77624311  0.04857158
   0.77779967  0.22182846  0.94314759
   0.88638374  0.11250315  0.05695139
   0.77170081  0.55329564  0.94760706
   0.88806066  0.43973026  0.05618096
   0.77485272  0.88661718  0.94858883
   0.88819622  0.77720959  0.04759415
unknown system                          
           1
     8.311973    4.817235    0.000000
    -8.320624    4.832189    0.000000
     0.000000    0.000000   30.000000
   V    Mo   W    S 
   3   3   3  18
Direct configuration=    14
   0.67125353  0.66865270  0.00090381
   0.36455590  0.01569023 -0.00063266
   0.34315843  0.67831402  0.00067218
   0.67866016  0.01890578 -0.00004903
   0.68569312  0.32825861 -0.00015595
   0.98323746  0.31885939 -0.00011236
  -0.01044220  0.02273478 -0.00017771
  -0.01715909  0.63084577 -0.00126232
   0.30978656  0.32214509  0.00106396
   0.10908690  0.22479264  0.94472555
   0.22067225  0.10445232  0.05000746
   0.11539341  0.55316215  0.94874151
   0.22206990  0.45050112  0.04989687
   0.11161201  0.88849928  0.95800923
   0.22450302  0.78054921  0.04720249
   0.44523700  0.22160321  0.95008427
   0.55356072  0.11078241  0.05396056
   0.44599531  0.55941057  0.95141699
   0.55392563  0.44345878  0.04730661
   0.44437155  0.88979489  0.94970193
   0.55608095  0.77621861  0.04860718
   0.77791605  0.22172541  0.94315864
   0.88623365  0.11245912  0.05695088
   0.77166331  0.55307985  0.94764982
   0.88814184  0.43969209  0.05618525
   0.77474161  0.88651494  0.94853423
   0.88826548  0.77711147  0.04761049
unknown system                          
           1
     8.320589    4.824742    0.000000
    -8.327668    4.836992    0.000000
     0.000000    0.000000   30.000000
   V    Mo   W    S 
   3   3   3  18
Direct configuration=    15
   0.67067801  0.66775166  0.00090923
   0.36458338  0.01574909 -0.00063507
   0.34288429  0.67814284  0.00070968
   0.67877543  0.01915729 -0.00005063
   0.68548873  0.32837134 -0.00016829
   0.98322544  0.31881997 -0.00012250
  -0.01028779  0.02294923 -0.00017652
  -0.01722323  0.63081015 -0.00126066
   0.31030868  0.32229205  0.00104978
   0.10928992  0.22499171  0.94476848
   0.22079722  0.10450097  0.05000385
   0.11532122  0.55313287  0.94871749
   0.22213283  0.45038353  0.04986720
   0.11157925  0.88850115  0.95801575
   0.22441819  0.78050552  0.04720893
   0.44524189  0.22147386  0.95002476
   0.55349801  0.11073170  0.05393990
   0.44603656  0.55948021  0.95137185
   0.55410696  0.44355059  0.04747124
   0.44434678  0.88976193  0.94974202
   0.55606267  0.77624071  0.04856091
   0.77788050  0.22181145  0.94316105
   0.88628480  0.11249508  0.05695420
   0.77166182  0.55316387  0.94761674
   0.88807177  0.43964849  0.05617889
   0.77483983  0.88665097  0.94860185
   0.88821132  0.77714625  0.04753977
unknown system                          
           1
     8.319785    4.825019    0.000000
    -8.325675    4.835220    0.000000
     0.000000    0.000000   30.000000
   V    Mo   W    S 
   3   3   3  18
Direct configuration=    16
   0.67228902  0.66945531  0.00092536
   0.36541742  0.01603602 -0.00063738
   0.34409449  0.67931441  0.00061675
   0.67814594  0.01869172 -0.00003502
   0.68611185  0.32798241 -0.00012272
   0.98358685  0.31877275 -0.00009400
  -0.01097407  0.02250959 -0.00018308
  -0.01733515  0.63048245 -0.00129305
   0.30778730  0.32153855  0.00108467
   0.10868554  0.22447489  0.94454154
   0.22052244  0.10434304  0.04994377
   0.11552528  0.55309661  0.94876511
   0.22199585  0.45086571  0.04996661
   0.11181324  0.88853838  0.95829548
   0.22459874  0.78076601  0.04709990
   0.44531169  0.22189893  0.95027721
   0.55369550  0.11096311  0.05403329
   0.44594569  0.55929021  0.95154477
   0.55328666  0.44302501  0.04695096
   0.44459407  0.89010986  0.94959983
   0.55632621  0.77621473  0.04863130
   0.77808254  0.22162002  0.94313832
   0.88600640  0.11242351  0.05698934
   0.77154789  0.55282686  0.94766209
   0.88822447  0.43957244  0.05622065
   0.77460795  0.88641792  0.94849575
   0.88832065  0.77698400  0.04758247
unknown system                          
           1
     8.317429    4.823686    0.000000
    -8.323083    4.833480    0.000000
     0.000000    0.000000   30.000000
   V    Mo   W    S 
   3   3   3  18
Direct configuration=    17
   0.67312125  0.67060279  0.00092411
   0.36567590  0.01609743 -0.00063734
   0.34463199  0.67976719  0.00056949
   0.67793850  0.01841785 -0.00003050
   0.68645502  0.32777423 -0.00010599
   0.98363845  0.31871490 -0.00008346
  -0.01122646  0.02236724 -0.00019171
  -0.01732540  0.63035359 -0.00131118
   0.30668006  0.32118167  0.00111045
   0.10838714  0.22419423  0.94448671
   0.22034787  0.10428548  0.04991180
   0.11559777  0.55310302  0.94881363
   0.22192379  0.45104856  0.04998430
   0.11186801  0.88853264  0.95838830
   0.22469589  0.78083821  0.04704789
   0.44532786  0.22209891  0.95038878
   0.55380720  0.11106584  0.05405997
   0.44587673  0.55917713  0.95163634
   0.55294962  0.44282232  0.04668988
   0.44466556  0.89021516  0.94954990
   0.55639024  0.77619500  0.04867214
   0.77814525  0.22151875  0.94315369
   0.88590465  0.11238712  0.05697695
   0.77154433  0.55266905  0.94771054
   0.88829244  0.43957716  0.05622120
   0.77449791  0.88628542  0.94843259
   0.88840291  0.77692358  0.04763143
unknown system                          
           1
     8.322971    4.828973    0.000000
    -8.326153    4.834511    0.000000
     0.000000    0.000000   30.000000
   V    Mo   W    S 
   3   3   3  18
Direct configuration=    18
   0.67311812  0.67035220  0.00092985
   0.36580147  0.01608052 -0.00063829
   0.34478554  0.67998229  0.00057997
   0.67784969  0.01846999 -0.00003392
   0.68661641  0.32784266 -0.00010901
   0.98371492  0.31868016 -0.00008692
  -0.01130554  0.02242137 -0.00020765
  -0.01733570  0.63024407 -0.00132933
   0.30632453  0.32113965  0.00111500
   0.10834320  0.22412945  0.94449659
   0.22037067  0.10436023  0.04987243
   0.11559455  0.55312389  0.94885194
   0.22196478  0.45111818  0.04996370
   0.11188564  0.88852362  0.95845247
   0.22472193  0.78083562  0.04700641
   0.44534846  0.22214568  0.95042987
   0.55384332  0.11112122  0.05406256
   0.44583611  0.55918598  0.95167047
   0.55281226  0.44270459  0.04666327
   0.44469622  0.89023591  0.94955951
   0.55638166  0.77616506  0.04862451
   0.77819927  0.22155220  0.94318942
   0.88588616  0.11239163  0.05695234
   0.77157154  0.55263465  0.94771854
   0.88829178  0.43956334  0.05619268
   0.77450092  0.88632448  0.94847474
   0.88839653  0.77688583  0.04759875
unknown system                          
           1
     8.321454    4.827500    0.000000
    -8.325328    4.834229    0.000000
     0.000000    0.000000   30.000000
   V    Mo   W    S 
   3   3   3  18
Direct configuration=    19
   0.67520979  0.67342590  0.00091944
   0.36637809  0.01632240 -0.00063494
   0.34598298  0.68090263  0.00044839
   0.67737480  0.01770903 -0.00001320
   0.68716186  0.32723349 -0.00005758
   0.98377721  0.31859453 -0.00005126
  -0.01188499  0.02191103 -0.00020030
  -0.01732083  0.63008844 -0.00134355
   0.30408392  0.32031605  0.00116785
   0.10763957  0.22353087  0.94431146
   0.21991079  0.10407188  0.04985329
   0.11581410  0.55309595  0.94889766
   0.22171511  0.45151550  0.05005488
   0.11204451  0.88854857  0.95861226
   0.22493436  0.78105927  0.04693593
   0.44535433  0.22256760  0.95065197
   0.55405113  0.11130011  0.05413751
   0.44574564  0.55889886  0.95185123
   0.55213165  0.44236093  0.04604806
   0.44484646  0.89050568  0.94940659
   0.55659872  0.77615441  0.04879323
   0.77829353  0.22125363  0.94315394
   0.88563492  0.11229174  0.05697577
   0.77148690  0.55229800  0.94780842
   0.88847215  0.43957472  0.05625443
   0.77419175  0.88590993  0.94825750
   0.88858599  0.77677330  0.04776095
unknown system                          
           1
     8.312059    4.824309    0.000000
    -8.316346    4.831753    0.000000
     0.000000    0.000000   30.000000
   V    Mo   W    S 
   3   3   3  18
Direct configuration=    20
   0.67448589  0.67218477  0.00092996
   0.36616745  0.01625282 -0.00063346
   0.34553299  0.68055965  0.00049263
   0.67758588  0.01807130 -0.00001605
   0.68698942  0.32748948 -0.00007628
   0.98378178  0.31862126 -0.00006004
  -0.01168480  0.02209059 -0.00019584
  -0.01735937  0.63015254 -0.00133017
   0.30482453  0.32057902  0.00114152
   0.10790848  0.22376217  0.94435711
   0.22007908  0.10417502  0.04986267
   0.11574858  0.55310030  0.94886272
   0.22180402  0.45138701  0.05004280
   0.11198809  0.88854276  0.95855694
   0.22483766  0.78099445  0.04697322
   0.44536430  0.22244004  0.95057287
   0.55398328  0.11124889  0.05411790
   0.44577145  0.55899104  0.95177293
   0.55233332  0.44243690  0.04628488
   0.44482085  0.89042600  0.94944780
   0.55656189  0.77618693  0.04873379
   0.77827126  0.22137108  0.94315524
   0.88571501  0.11232712  0.05697530
   0.77149895  0.55240533  0.94775456
   0.88841791  0.43956187  0.05624221
   0.77427614  0.88605033  0.94833958
   0.88851040  0.77680579  0.04769511
unknown system                          
           1
     8.323776    4.831131    0.000000
    -8.325855    4.834768    0.000000
     0.000000    0.000000   30.000000
   V    Mo   W    S 
   3   3   3  18
Direct configuration=    21
   0.67458108  0.67119451  0.00091629
   0.36633770  0.01645525 -0.00062427
   0.34540808  0.68055860  0.00049912
   0.67775682  0.01871308 -0.00001415
   0.68723296  0.32769818 -0.00007329
   0.98382496  0.31867771 -0.00007070
  -0.01173911  0.02215277 -0.00022135
  -0.01755409  0.62997416 -0.00132852
   0.30451737  0.32045063  0.00111113
   0.10780338  0.22368006  0.94430080
   0.22006423  0.10416145  0.04985323
   0.11562498  0.55308251  0.94885038
   0.22176573  0.45135578  0.05010130
   0.11202813  0.88854465  0.95861947
   0.22471278  0.78109819  0.04698812
   0.44539123  0.22252763  0.95062422
   0.55397049  0.11133674  0.05412581
   0.44569662  0.55884655  0.95174979
   0.55202399  0.44211948  0.04629567
   0.44500149  0.89069771  0.94940514
   0.55682467  0.77635650  0.04872472
   0.77841142  0.22147303  0.94315508
   0.88568399  0.11233671  0.05698973
   0.77154090  0.55235025  0.94768520
   0.88848435  0.43955363  0.05625133
   0.77419860  0.88605340  0.94838317
   0.88862169  0.77676527  0.04770245
unknown system                          
           1
     8.331138    4.836421    0.000000
    -8.331128    4.836461    0.000000
     0.000000    0.000000   30.000000
   V    Mo   W    S 
   3   3   3  18
Direct configuration=    22
   0.67650149  0.67529550  0.00089809
   0.36680477  0.01649661 -0.00063464
   0.34675730  0.68152658  0.00037349
   0.67703364  0.01724414 -0.00000704
   0.68753244  0.32685591 -0.00002337
   0.98379169  0.31856876 -0.00003805
  -0.01226773  0.02159516 -0.00021457
  -0.01730754  0.62992840 -0.00136661
   0.30269588  0.31982949  0.00120496
   0.10713483  0.22310186  0.94421115
   0.21961522  0.10388846  0.04983335
   0.11590370  0.55308415  0.94895462
   0.22154967  0.45174598  0.05009428
   0.11215940  0.88856106  0.95872941
   0.22507436  0.78120400  0.04687359
   0.44534502  0.22281650  0.95080693
   0.55416700  0.11141833  0.05417596
   0.44568082  0.55870386  0.95198356
   0.55168403  0.44213485  0.04563547
   0.44494190  0.89071871  0.94932069
   0.55673582  0.77613722  0.04889213
   0.77837644  0.22107818  0.94314990
   0.88548241  0.11223269  0.05698212
   0.77147436  0.55209570  0.94788150
   0.88858752  0.43959250  0.05627994
   0.77401652  0.88566017  0.94812669
   0.88874349  0.77669969  0.04787632
unknown system                          
           1
     8.332450    4.837524    0.000000
    -8.331224    4.835468    0.000000
     0.000000    0.000000   30.000000
   V    Mo   W    S 
   3   3   3  18
Direct configuration=    23
   0.67840991  0.67883866  0.00087076
   0.36734701  0.01666865 -0.00063865
   0.34802293  0.68247638  0.00026080
   0.67640694  0.01609853  0.00000295
   0.68787368  0.32611515  0.00002950
   0.98373022  0.31847210 -0.00000618
  -0.01280638  0.02106378 -0.00021242
  -0.01716278  0.62982766 -0.00138451
   0.30085639  0.31916635  0.00127911
   0.10640579  0.22247860  0.94409837
   0.21914858  0.10358900  0.04981138
   0.11613206  0.55306585  0.94903821
   0.22129757  0.45209904  0.05011655
   0.11232962  0.88857376  0.95886272
   0.22536842  0.78137529  0.04676723
   0.44530171  0.22312669  0.95100443
   0.55434691  0.11153220  0.05423367
   0.44564826  0.55848106  0.95220282
   0.55124347  0.44204924  0.04498306
   0.44497007  0.89089576  0.94921070
   0.55680904  0.77601668  0.04905711
   0.77839612  0.22072143  0.94313449
   0.88527455  0.11213041  0.05697594
   0.77142191  0.55182633  0.94804110
   0.88872843  0.43964397  0.05631887
   0.77379482  0.88526192  0.94788300
   0.88891920  0.77661995  0.04805887
unknown system                          
           1
     8.340530    4.841772    0.000000
    -8.338193    4.837804    0.000000
     0.000000    0.000000   30.000000
   V    Mo   W    S 
   3   3   3  18
Direct configuration=    24
   0.67992137  0.68221283  0.00083186
   0.36783033  0.01687272 -0.00064253
   0.34910388  0.68327942  0.00014948
   0.67590226  0.01502117  0.00000920
   0.68812285  0.32533338  0.00007392
   0.98349779  0.31830017  0.00000600
  -0.01322075  0.02065285 -0.00020398
  -0.01707829  0.62963713 -0.00142313
   0.29943187  0.31862881  0.00135240
   0.10578827  0.22193803  0.94404917
   0.21874669  0.10333411  0.04978116
   0.11630826  0.55304364  0.94914661
   0.22105035  0.45234633  0.05010370
   0.11247929  0.88858898  0.95897627
   0.22564255  0.78151086  0.04666329
   0.44521612  0.22331334  0.95117516
   0.55448893  0.11155752  0.05426044
   0.44568969  0.55831811  0.95241520
   0.55104279  0.44214604  0.04437166
   0.44494215  0.89100994  0.94911962