unknown system                          
           1
     8.854736    5.107538    0.000000
    -8.853264    5.105007    0.000000
     0.000000    0.000000   30.000000
   V    Mo   W    S 
   3   3   3  18
Direct configuration=     1
   0.33333334  0.33333334  0.00000000
   0.66666669  0.66666669  0.00000000
   0.33333334  0.66666669  0.00000000
   0.00000000  0.00000000  0.00000000
   0.00000000  0.66666669  0.00000000
   0.66666669  0.00000000  0.00000000
   1.00000000  0.33333334  0.00000000
   0.33333334  0.00000000  0.00000000
   0.66666669  0.33333334  0.00000000
   0.11068511  0.22244981  0.95539999
   0.22244981  0.11068511  0.04460000
   0.11068511  0.55578315  0.95539999
   0.22244981  0.44401845  0.04460000
   0.11068511  0.88911647  0.95539999
   0.22244981  0.77735180  0.04460000
   0.44401845  0.22244981  0.95539999
   0.55578315  0.11068511  0.04460000
   0.44401845  0.55578315  0.95539999
   0.55578315  0.44401845  0.04460000
   0.44401845  0.88911647  0.95539999
   0.55578315  0.77735180  0.04460000
   0.77735180  0.22244981  0.95539999
   0.88911647  0.11068511  0.04460000
   0.77735180  0.55578315  0.95539999
   0.88911647  0.44401845  0.04460000
   0.77735180  0.88911647  0.95539999
   0.88911647  0.77735180  0.04460000
unknown system                          
           1
     8.666750    5.001398    0.000000
    -8.665192    4.998717    0.000000
     0.000000    0.000000   30.000000
   V    Mo   W    S 
   3   3   3  18
Direct configuration=     2
   0.33274148  0.33318153 -0.00004788
   0.66795729  0.66855000 -0.00002043
   0.33390680  0.66731427 -0.00007774
  -0.00155090 -0.00157658  0.00019073
  -0.00012338  0.66801259  0.00015256
   0.66809066 -0.00014333 -0.00010719
   0.99910031  0.33207522 -0.00021926
   0.33164235 -0.00168238  0.00023452
   0.66787894  0.33374059 -0.00010554
   0.11499520  0.22488380  0.95196586
   0.22476516  0.11493268  0.04806834
   0.11496990  0.55659559  0.95201779
   0.22569231  0.44591280  0.04687259
   0.11201999  0.88933110  0.95076134
   0.22503189  0.77637236  0.04805364
   0.44252141  0.22423086  0.95201603
   0.55485324  0.11137781  0.04916809
   0.44414052  0.55558666  0.95417379
   0.55369564  0.44607633  0.04692065
   0.44185686  0.88481952  0.95194536
   0.55347288  0.77322817  0.04687836
   0.77816349  0.22298804  0.95060144
   0.88939687  0.11191693  0.04925299
   0.77471557  0.55681277  0.95201425
   0.88846020  0.44379313  0.04926990
   0.77538904  0.88433024  0.95190555
   0.88443072  0.77555375  0.04811417
unknown system                          
           1
     8.484326    4.900444    0.000000
    -8.483660    4.899305    0.000000
     0.000000    0.000000   30.000000
   V    Mo   W    S 
   3   3   3  18
Direct configuration=     3
   0.33254749  0.33305104 -0.00004926
   0.66845621  0.66914441 -0.00001441
   0.33400056  0.66759953 -0.00012540
  -0.00195484 -0.00209142  0.00020775
  -0.00000777  0.66861420  0.00012954
   0.66890495  0.00049546 -0.00008802
   0.99817034  0.33138691 -0.00025299
   0.33094405 -0.00230507  0.00025556
   0.66859018  0.33363836 -0.00007875
   0.11495459  0.22505805  0.95199347
   0.22493806  0.11489454  0.04806273
   0.11495711  0.55643017  0.95209517
   0.22554361  0.44587972  0.04678188
   0.11225335  0.88947454  0.95070991
   0.22519166  0.77655553  0.04811646
   0.44262889  0.22413828  0.95209776
   0.55475219  0.11148732  0.04911123
   0.44416559  0.55559805  0.95428440
   0.55379303  0.44601237  0.04678346
   0.44168629  0.88484084  0.95198193
   0.55340369  0.77310861  0.04683608
   0.77828275  0.22322332  0.95049922
   0.88954911  0.11216402  0.04933062
   0.77453894  0.55662599  0.95202440
   0.88839488  0.44357892  0.04926209
   0.77528122  0.88415255  0.95182003
   0.88424832  0.77545822  0.04822501
unknown system                          
           1
     8.272441    4.784779    0.000000
    -8.268354    4.777715    0.000000
     0.000000    0.000000   30.000000
   V    Mo   W    S 
   3   3   3  18
Direct configuration=     4
   0.33166223  0.33200398 -0.00003002
   0.67069783  0.67134834  0.00002028
   0.33395221  0.66887616 -0.00026319
  -0.00307536 -0.00391163  0.00018450
   0.00070032  0.67118640  0.00000183
   0.67252912  0.00416732  0.00000180
   0.99356433  0.32823360 -0.00027510
   0.32813005 -0.00453507  0.00021961
   0.67153722  0.33253667  0.00005673
   0.11588333  0.22548800  0.95065823
   0.22544595  0.11590927  0.04950964
   0.11597284  0.55692919  0.95097648
   0.22639822  0.44647932  0.04773142
   0.11232986  0.88972784  0.94889895
   0.22570192  0.77588322  0.04986822
   0.44234140  0.22443695  0.95099425
   0.55466647  0.11149264  0.05046710
   0.44435048  0.55563621  0.95349920
   0.55342860  0.44656889  0.04755350
   0.44122037  0.88395138  0.95071290
   0.55282042  0.77200042  0.04796405
   0.77827405  0.22328421  0.94835124
   0.88986169  0.11233335  0.05124770
   0.77386955  0.55708915  0.95062297
   0.88869828  0.44364697  0.05083815
   0.77455845  0.88275925  0.95006310
   0.88269460  0.77469242  0.05012634
unknown system                          
           1
     8.271261    4.791593    0.000000
    -8.266099    4.782659    0.000000
     0.000000    0.000000   30.000000
   V    Mo   W    S 
   3   3   3  18
Direct configuration=     5
   0.33010552  0.33036604  0.00005466
   0.67446869  0.67500326  0.00010920
   0.33359374  0.67106944 -0.00036130
  -0.00436658 -0.00738596  0.00004921
   0.00287933  0.67730325 -0.00013260
   0.68046484  0.01296129  0.00010173
   0.98373668  0.32131769 -0.00016128
   0.32128411 -0.00928535  0.00006772
   0.67760861  0.32948949  0.00023116
   0.11609512  0.22530820  0.94895952
   0.22523501  0.11644963  0.05156612
   0.11641305  0.55704141  0.94969079
   0.22650902  0.44682105  0.04881626
   0.11177851  0.88993990  0.94625444
   0.22576357  0.77485430  0.05234123
   0.44233615  0.22448410  0.94981375
   0.55436109  0.11095509  0.05211618
   0.44488480  0.55591965  0.95222360
   0.55361250  0.44723457  0.04840318
   0.44162503  0.88355712  0.94922588
   0.55290433  0.77187653  0.04941923
   0.77803965  0.22273255  0.94481815
   0.89053836  0.11208150  0.05399140
   0.77338835  0.55765006  0.94892472
   0.88995747  0.44475894  0.05289892
   0.77387907  0.88166380  0.94771165
   0.88111844  0.77404690  0.05286638
unknown system                          
           1
     8.270714    4.793553    0.000000
    -8.266480    4.786216    0.000000
     0.000000    0.000000   30.000000
   V    Mo   W    S 
   3   3   3  18
Direct configuration=     6
   0.32963217  0.33048741  0.00002480
   0.67494185  0.67582133  0.00010078
   0.33356686  0.67132072 -0.00041208
  -0.00373548 -0.00805078  0.00005451
   0.00389073  0.67953730 -0.00006139
   0.68232786  0.01509206  0.00007003
   0.98195186  0.31960339 -0.00008329
   0.31826377 -0.01065896  0.00002436
   0.67908956  0.32832659  0.00013784
   0.11519295  0.22497321  0.94898813
   0.22470623  0.11570804  0.05171399
   0.11535696  0.55626361  0.94994793
   0.22525156  0.44626897  0.04868562
   0.11123198  0.88993516  0.94575426
   0.22530501  0.77485064  0.05255550
   0.44273462  0.22406980  0.95007506
   0.55390651  0.11030229  0.05199003
   0.44505592  0.55615087  0.95221422
   0.55450472  0.44682680  0.04818519
   0.44240396  0.88446428  0.94945739
   0.55370849  0.77325732  0.04934802
   0.77794513  0.22246018  0.94411796
   0.89103215  0.11166102  0.05431992
   0.77370459  0.55741570  0.94906829
   0.89083123  0.44562729  0.05299281
   0.77399044  0.88227046  0.94763207
   0.88142282  0.77422975  0.05309795
unknown system                          
           1
     8.281014    4.804847    0.000000
    -8.275561    4.795401    0.000000
     0.000000    0.000000   30.000000
   V    Mo   W    S 
   3   3   3  18
Direct configuration=     7
   0.32869373  0.33095465  0.00002964
   0.67547668  0.67730379  0.00013399
   0.33369042  0.67159328 -0.00053400
  -0.00264863 -0.00921281  0.00004081
   0.00548044  0.68329661 -0.00002810
   0.68579211  0.01831612  0.00006353
   0.97878380  0.31654226 -0.00002125
   0.31319415 -0.01284707 -0.00005910
   0.68183542  0.32681406  0.00015418
   0.11432277  0.22456973  0.94902634
   0.22415567  0.11500047  0.05192968
   0.11412484  0.55537342  0.95045382
   0.22390971  0.44566938  0.04849925
   0.11047668  0.88983127  0.94504722
   0.22478784  0.77490622  0.05281280
   0.44311531  0.22346265  0.95051669
   0.55306657  0.10942396  0.05161926
   0.44522835  0.55639498  0.95230036
   0.55552075  0.44620242  0.04768218
   0.44313415  0.88557674  0.94992633
   0.55456344  0.77485166  0.04916341
   0.77823253  0.22217291  0.94333722
   0.89161916  0.11107824  0.05465982
   0.77409131  0.55708844  0.94937015
   0.89168519  0.44649014  0.05292091
   0.77423750  0.88291804  0.94758908
   0.88164459  0.77444291  0.05336568
unknown system                          
           1
     8.286569    4.814583    0.000000
    -8.279806    4.802867    0.000000
     0.000000    0.000000   30.000000
   V    Mo   W    S 
   3   3   3  18
Direct configuration=     8
   0.32780849  0.33129800  0.00003886
   0.67568970  0.67836477  0.00016632
   0.33382679  0.67169848 -0.00062390
  -0.00191163 -0.00983018  0.00002794
   0.00623996  0.68539083 -0.00000612
   0.68770968  0.01969010  0.00004663
   0.97752760  0.31494326  0.00002754
   0.31024139 -0.01395075 -0.00008150
   0.68341866  0.32611674  0.00011443
   0.11400139  0.22439748  0.94901548
   0.22391924  0.11472951  0.05208637
   0.11345456  0.55490869  0.95079287
   0.22327234  0.44537555  0.04841557
   0.10992952  0.88972881  0.94454646
   0.22449813  0.77491794  0.05295152
   0.44325852  0.22313129  0.95082582
   0.55241235  0.10876652  0.05134168
   0.44529124  0.55651548  0.95235700
   0.55606195  0.44581402  0.04732167
   0.44346586  0.88624752  0.95025036
   0.55498285  0.77565657  0.04906932
   0.77842057  0.22196525  0.94289390
   0.89204816  0.11070224  0.05489527
   0.77423270  0.55689079  0.94957110
   0.89232874  0.44703309  0.05288462
   0.77437992  0.88319689  0.94753861
   0.88170581  0.77451556  0.05353207
unknown system                          
           1
     8.292452    4.817261    0.000000
    -8.285326    4.804919    0.000000
     0.000000    0.000000   30.000000
   V    Mo   W    S 
   3   3   3  18
Direct configuration=     9
   0.32581652  0.33168189  0.00007452
   0.67585771  0.68016594  0.00024717
   0.33416385  0.67169682 -0.00079229
  -0.00088482 -0.01039884  0.00001213
   0.00678466  0.68775969  0.00001844
   0.69008379  0.02067907  0.00002820
   0.97671087  0.31305600  0.00008252
   0.30662254 -0.01494050 -0.00008404
   0.68561676  0.32561041  0.00006003
   0.11388696  0.22422512  0.94901020
   0.22363873  0.11450903  0.05223627
   0.11263417  0.55438140  0.95136681
   0.22268772  0.44506446  0.04832150
   0.10918093  0.88954927  0.94397036
   0.22406830  0.77498664  0.05299320
   0.44338007  0.22274604  0.95139369
   0.55146995  0.10784941  0.05075058
   0.44531901  0.55661161  0.95249177
   0.55664932  0.44521613  0.04663950
   0.44375329  0.88721135  0.95080975
   0.55541397  0.77649453  0.04893366
   0.77888830  0.22167392  0.94255298
   0.89263251  0.11019116  0.05510072
   0.77428869  0.55658829  0.94993574
   0.89313361  0.44754979  0.05269432
   0.77467089  0.88343621  0.94750685
   0.88174617  0.77461964  0.05364533
unknown system                          
           1
     8.298316    4.822343    0.000000
    -8.290361    4.808570    0.000000
     0.000000    0.000000   30.000000
   V    Mo   W    S 
   3   3   3  18
Direct configuration=    10
   0.32565044  0.33161085  0.00008240
   0.67582000  0.68019041  0.00025209
   0.33419314  0.67170854 -0.00079428
  -0.00101356 -0.01028018  0.00001274
   0.00659564  0.68740342  0.00001193
   0.68981001  0.02028335  0.00002300
   0.97710875  0.31329275  0.00007758
   0.30704243 -0.01477445 -0.00007582
   0.68547008  0.32579845  0.00004818
   0.11397889  0.22423928  0.94896326
   0.22366401  0.11459417  0.05224724
   0.11274287  0.55446221  0.95133483
   0.22282627  0.44517075  0.04837372
   0.10922154  0.88953508  0.94401887
   0.22409537  0.77496006  0.05297001
   0.44336528  0.22281647  0.95136898
   0.55150533  0.10787484  0.05076493
   0.44530965  0.55661202  0.95247513
   0.55657072  0.44526535  0.04665162
   0.44370780  0.88714161  0.95077665
   0.55531283  0.77634684  0.04897291
   0.77891602  0.22166469  0.94261086
   0.89259860  0.11021417  0.05509419
   0.77422675  0.55661954  0.94990411
   0.89312543  0.44749490  0.05271537
   0.77466688  0.88336642  0.94748112
   0.88170331  0.77460291  0.05363831
unknown system                          
           1
     8.302049    4.825137    0.000000
    -8.293640    4.810581    0.000000
     0.000000    0.000000   30.000000
   V    Mo   W    S 
   3   3   3  18
Direct configuration=    11
   0.32384188  0.33164921  0.00012977
   0.67588905  0.68150205  0.00031667
   0.33452444  0.67176371 -0.00091173
  -0.00060368 -0.01041816  0.00001079
   0.00661803  0.68835930  0.00001758
   0.69102240  0.02038628  0.00000989
   0.97708198  0.31230947  0.00010033
   0.30528510 -0.01522411 -0.00006694
   0.68685425  0.32579109  0.00000933
   0.11403051  0.22411790  0.94886823
   0.22349427  0.11454003  0.05233533
   0.11240340  0.55425365  0.95166618
   0.22270208  0.44519294  0.04841208
   0.10886773  0.88939943  0.94380307
   0.22384154  0.77496796  0.05292279
   0.44345442  0.22271623  0.95171896
   0.55104912  0.10737601  0.05037744
   0.44530715  0.55669769  0.95254701
   0.55681401  0.44496295  0.04619431
   0.44383441  0.88765296  0.95108692
   0.55540180  0.77661731  0.04895757
   0.77932616  0.22146527  0.94253259
   0.89287378  0.10993115  0.05518199
   0.77414687  0.55648242  0.95009056
   0.89359356  0.44764886  0.05259997
   0.77487752  0.88340926  0.94741733
   0.88168266  0.77466359  0.05367188
unknown system                          
           1
     8.311991    4.832471    0.000000
    -8.301904    4.815024    0.000000
     0.000000    0.000000   30.000000
   V    Mo   W    S 
   3   3   3  18
Direct configuration=    12
   0.32315154  0.33161202  0.00014844
   0.67593297  0.68197995  0.00033992
   0.33465399  0.67179331 -0.00095621
  -0.00049519 -0.01044852  0.00000813
   0.00656617  0.68861722  0.00001783
   0.69138081  0.02034669  0.00000297
   0.97716797  0.31201676  0.00010888
   0.30477313 -0.01532960 -0.00006036
   0.68730947  0.32582309 -0.00000765
   0.11404742  0.22407426  0.94881964
   0.22343528  0.11453109  0.05237427
   0.11228861  0.55418122  0.95177119
   0.22266381  0.44520989  0.04843997
   0.10873741  0.88935036  0.94372511
   0.22375284  0.77495658  0.05291519
   0.44349316  0.22270209  0.95183837
   0.55090410  0.10720874  0.05025137
   0.44530893  0.55672133  0.95256850
   0.55688538  0.44485983  0.04603338
   0.44389235  0.88783801  0.95117967
   0.55543318  0.77670746  0.04896566
   0.77946940  0.22138815  0.94249379
   0.89296829  0.10982908  0.05522637
   0.77410577  0.55644105  0.95014374
   0.89377703  0.44770084  0.05257684
   0.77494818  0.88342392  0.94738305
   0.88166244  0.77467965  0.05369185
unknown system                          
           1
     8.326510    4.843314    0.000000
    -8.313761    4.821281    0.000000
     0.000000    0.000000   30.000000
   V    Mo   W    S 
   3   3   3  18
Direct configuration=    13
   0.32040954  0.33137676  0.00022939
   0.67618789  0.68391318  0.00043169
   0.33521660  0.67197181 -0.00113399
  -0.00026215 -0.01061428  0.00000235
   0.00623520  0.68944076  0.00001960
   0.69270485  0.02013680 -0.00002093
   0.97748882  0.31092622  0.00013503
   0.30294656 -0.01572578 -0.00002807
   0.68911211  0.32602168 -0.00006919
   0.11412221  0.22390997  0.94861884
   0.22319710  0.11447001  0.05250086
   0.11188174  0.55393443  0.95218422
   0.22256663  0.44531281  0.04856075
   0.10829579  0.88916020  0.94350649
   0.22338962  0.77492945  0.05284285
   0.44365976  0.22268966  0.95231646
   0.55043087  0.10663312  0.04974270
   0.44531861  0.55682973  0.95267075
   0.55713852  0.44450074  0.04538102
   0.44410352  0.88854487  0.95152823
   0.55554927  0.77698741  0.04900000
   0.78007684  0.22110697  0.94240973
   0.89327898  0.10946077  0.05535876
   0.77390971  0.55630616  0.95035055
   0.89445557  0.44780385  0.05246896
   0.77521508  0.88344221  0.94725612
   0.88158523  0.77474494  0.05373673
unknown system                          
           1
     8.344892    4.854961    0.000000
    -8.327320    4.824632    0.000000
     0.000000    0.000000   30.000000
   V    Mo   W    S 
   3   3   3  18
Direct configuration=    14
   0.31491416  0.33034781  0.00040637
   0.67671039  0.68747479  0.00060094
   0.33641678  0.67237662 -0.00146822
   0.00013436 -0.01045054 -0.00001594
   0.00531723  0.69047536  0.00001542
   0.69483597  0.01939097 -0.00006504
   0.97857312  0.30903782  0.00017543
   0.30007234 -0.01612820  0.00005468
   0.69234248  0.32666822 -0.00019546
   0.11426578  0.22359262  0.94819847
   0.22276391  0.11442937  0.05271375
   0.11128709  0.55357398  0.95289397
   0.22251619  0.44562709  0.04883159
   0.10756750  0.88883888  0.94320125
   0.22276381  0.77477461  0.05268806
   0.44396682  0.22285955  0.95318407
   0.54974264  0.10570253  0.04885826
   0.44527349  0.55691587  0.95287477
   0.55733875  0.44382839  0.04416818
   0.44448170  0.88978758  0.95206575
   0.55561015  0.77738224  0.04915288
   0.78123074  0.22060700  0.94229033
   0.89376752  0.10879721  0.05560510
   0.77348854  0.55610858  0.95062670
   0.89570795  0.44784105  0.05234296
   0.77573524  0.88352534  0.94694308
   0.88138983  0.77482972  0.05385256
unknown system                          
           1
     8.338751    4.849968    0.000000
    -8.320948    4.819249    0.000000
     0.000000    0.000000   30.000000
   V    Mo   W    S 
   3   3   3  18
Direct configuration=    15
   0.30897874  0.32834021  0.00065807
   0.67758684  0.69148352  0.00078691
   0.33819072  0.67322384 -0.00189531
   0.00002600 -0.01008001 -0.00003957
   0.00373719  0.69101569  0.00001636
   0.69680057  0.01813986 -0.00016328
   0.98011657  0.30704151  0.00020707
   0.29750257 -0.01631564  0.00019130
   0.69584437  0.32774912 -0.00034271
   0.11426347  0.22317484  0.94757421
   0.22218348  0.11450604  0.05302859
   0.11073444  0.55325247  0.95371905
   0.22244370  0.44609399  0.04921564
   0.10674238  0.88844819  0.94297285
   0.22201935  0.77454069  0.05245008
   0.44427356  0.22324258  0.95417614
   0.54914567  0.10485373  0.04782144
   0.44517849  0.55685306  0.95318491
   0.55721156  0.44321599  0.04270096
   0.44491942  0.89123438  0.95258992
   0.55563382  0.77778032  0.04941669
   0.78276749  0.22001279  0.94221971
   0.89423883  0.10802183  0.05592204
   0.77295241  0.55606035  0.95083453
   0.89728664  0.44770298  0.05225162
   0.77632585  0.88365409  0.94652501
   0.88111029  0.77496803  0.05397768
unknown system                          
           1
     8.357207    4.862761    0.000000
    -8.335149    4.824716    0.000000
     0.000000    0.000000   30.000000
   V    Mo   W    S 
   3   3   3  18
Direct configuration=    16
   0.31000226  0.32685141  0.00079958
   0.67812372  0.69099232  0.00074684
   0.33925708  0.67391538 -0.00190923
  -0.00065336 -0.00950677 -0.00009063
   0.00278782  0.69011523  0.00001334
   0.69615486  0.01768329 -0.00015515
   0.98044056  0.30699849  0.00019427
   0.29803369 -0.01585344  0.00031262
   0.69573079  0.32822001 -0.00044527
   0.11386779  0.22303590  0.94746991
   0.22187637  0.11446225  0.05310179
   0.11097169  0.55342282  0.95383367
   0.22239759  0.44613126  0.04917792
   0.10673304  0.88844845  0.94322794
   0.22190804  0.77444755  0.05232719
   0.44418688  0.22344946  0.95415368
   0.54943331  0.10526108  0.04770322
   0.44511064  0.55661646  0.95335063
   0.55664193  0.44363837  0.04258903
   0.44495616  0.89154087  0.95241328
   0.55553071  0.77777276  0.04953812
   0.78311674  0.22010124  0.94234053
   0.89391651  0.10792154  0.05591556
   0.77292855  0.55634524  0.95063802
   0.89752524  0.44743578  0.05231183
   0.77631303  0.88376756  0.94641806
   0.88092277  0.77499994  0.05402315
unknown system                          
           1
     8.355187    4.860552    0.000000
    -8.332560    4.821537    0.000000
     0.000000    0.000000   30.000000
   V    Mo   W    S 
   3   3   3  18
Direct configuration=    17
   0.30437916  0.32478557  0.00104711
   0.67909125  0.69466560  0.00089172
   0.34128505  0.67483926 -0.00226096
  -0.00064960 -0.00902796 -0.00011805
   0.00122847  0.69059330  0.00004111
   0.69790061  0.01645733 -0.00024974
   0.98180885  0.30508127  0.00023600
   0.29545034 -0.01611511  0.00044229
   0.69920055  0.32944756 -0.00059841
   0.11397183  0.22270353  0.94694001
   0.22123774  0.11442898  0.05342514
   0.11050268  0.55312663  0.95460066
   0.22241904  0.44646458  0.04944886
   0.10599958  0.88813326  0.94303229
   0.22120506  0.77423662  0.05211920
   0.44448017  0.22377694  0.95500367
   0.54884125  0.10455363  0.04678507
   0.44506576  0.55653369  0.95363098
   0.55656131  0.44309914  0.04130291
   0.44530513  0.89295969  0.95284398
   0.55556245  0.77810258  0.04978088
   0.78445165  0.21961185  0.94225116
   0.89424488  0.10719556  0.05621445
   0.77243629  0.55630122  0.95076850
   0.89884666  0.44727775  0.05222345
   0.77676058  0.88385519  0.94603628
   0.88062767  0.77512682  0.05416134
unknown system                          
           1
     8.357009    4.861418    0.000000
    -8.333867    4.821518    0.000000
     0.000000    0.000000   30.000000
   V    Mo   W    S 
   3   3   3  18
Direct configuration=    18
   0.30485974  0.32417853  0.00109373
   0.67938016  0.69430154  0.00084846
   0.34233651  0.67540524 -0.00227487
  -0.00087197 -0.00876859 -0.00012578
   0.00075074  0.69022378  0.00005157
   0.69744486  0.01623980 -0.00027168
   0.98182751  0.30508413  0.00022343
   0.29559579 -0.01602492  0.00049165
   0.69912393  0.32970528 -0.00064909
   0.11388877  0.22263548  0.94694796
   0.22095060  0.11426776  0.05350836
   0.11070809  0.55321599  0.95470608
   0.22244868  0.44639014  0.04936566
   0.10592988  0.88812022  0.94312204
   0.22113691  0.77421506  0.05207866
   0.44442703  0.22374713  0.95494878
   0.54896185  0.10490034  0.04674426
   0.44508371  0.55642329  0.95368655
   0.55641390  0.44330573  0.04134438
   0.44519731  0.89309282  0.95275444
   0.55554032  0.77806966  0.04982072
   0.78452637  0.21965664  0.94227457
   0.89401309  0.10712505  0.05623184
   0.77247940  0.55642080  0.95063338
   0.89884444  0.44718746  0.05224531
   0.77668742  0.88389624  0.94600485
   0.88052942  0.77519985  0.05419462
unknown system                          
           1
     8.355753    4.861121    0.000000
    -8.333357    4.822501    0.000000
     0.000000    0.000000   30.000000
   V    Mo   W    S 
   3   3   3  18
Direct configuration=    19
   0.30435962  0.32360006  0.00115483
   0.67967133  0.69461225  0.00084337
   0.34324826  0.67586490 -0.00231494
  -0.00098493 -0.00859364 -0.00012748
   0.00028076  0.69010746  0.00006140
   0.69744698  0.01594332 -0.00028524
   0.98197336  0.30481042  0.00022604
   0.29529233 -0.01600979  0.00054035
   0.69955446  0.33002373 -0.00070304
   0.11386126  0.22255572  0.94688153
   0.22071364  0.11415789  0.05358796
   0.11077305  0.55323043  0.95487194
   0.22246693  0.44640090  0.04935399
   0.10579230  0.88807466  0.94314220
   0.22101028  0.77416254  0.05203073
   0.44443806  0.22376538  0.95502929
   0.54891673  0.10497068  0.04660756
   0.44512052  0.55635439  0.95373769
   0.55634292  0.44332780  0.04120396
   0.44518615  0.89336936  0.95274821
   0.55554694  0.77808680  0.04987467
   0.78472769  0.21962624  0.94227059
   0.89390060  0.10699277  0.05626810
   0.77243821  0.55647802  0.95057542
   0.89900515  0.44712287  0.05224691
   0.77670191  0.88392578  0.94594090
   0.88042991  0.77525350  0.05423297
unknown system                          
           1
     8.346116    4.859500    0.000000
    -8.326167    4.825054    0.000000
     0.000000    0.000000   30.000000
   V    Mo   W    S 
   3   3   3  18
Direct configuration=    20
   0.30483084  0.32425207  0.00109100
   0.67932911  0.69441239  0.00085970
   0.34211507  0.67530892 -0.00227833
  -0.00090669 -0.00881577 -0.00012542
   0.00084361  0.69029463  0.00004970
   0.69755221  0.01621006 -0.00026493
   0.98185355  0.30505040  0.00023084
   0.29558669 -0.01603403  0.00048837
   0.69915574  0.32967106 -0.00064388
   0.11386236  0.22261460  0.94692524
   0.22097594  0.11427886  0.05350390
   0.11067875  0.55319700  0.95469359
   0.22243700  0.44643300  0.04938725
   0.10594080  0.88811942  0.94310875
   0.22114697  0.77422282  0.05207908
   0.44443590  0.22375927  0.95496052
   0.54894799  0.10483960  0.04673399
   0.44506353  0.55647499  0.95369646
   0.55642847  0.44331488  0.04132007
   0.44521974  0.89307521  0.95278243
   0.55551236  0.77807695  0.04980882
   0.78456043  0.21964421  0.94227211
   0.89405636  0.10711773  0.05623317
   0.77246171  0.55641681  0.95065112
   0.89890006  0.44719817  0.05224698
   0.77670110  0.88388937  0.94600036
   0.88052487  0.77519184  0.05418902
unknown system                          
           1
     8.343371    4.859336    0.000000
    -8.324475    4.826689    0.000000
     0.000000    0.000000   30.000000
   V    Mo   W    S 
   3   3   3  18
Direct configuration=    21
   0.30622016  0.32568183  0.00093350
   0.67849456  0.69382406  0.00088786
   0.33913888  0.67394722 -0.00215298
  -0.00081347 -0.00920870 -0.00012557
   0.00225092  0.69066243  0.00003097
   0.69778124  0.01688709 -0.00022910
   0.98150415  0.30555366  0.00024369
   0.29631813 -0.01612470  0.00037217
   0.69834428  0.32900241 -0.00051080
   0.11387804  0.22276927  0.94705187
   0.22153069  0.11445615  0.05328856
   0.11050162  0.55309642  0.95422578
   0.22245571  0.44656211  0.04943223
   0.10636886  0.88828855  0.94307531
   0.22153016  0.77437788  0.05220920
   0.44448418  0.22380393  0.95472994
   0.54910966  0.10459859  0.04705458
   0.44480625  0.55684471  0.95361699
   0.55665531  0.44337709  0.04164695
   0.44528139  0.89230395  0.95286938
   0.55526329  0.77801024  0.04963092
   0.78415550  0.21971504  0.94231416
   0.89443180  0.10739589  0.05615349
   0.77249077  0.55624640  0.95080593
   0.89859195  0.44728965  0.05224257
   0.77667212  0.88379332  0.94613191
   0.88076828  0.77505998  0.05407040
unknown system                          
           1
     8.350287    4.860606    0.000000
    -8.330027    4.825632    0.000000
     0.000000    0.000000   30.000000
   V    Mo   W    S 
   3   3   3  18
Direct configuration=    22
   0.30691578  0.32683927  0.00080178
   0.67776410  0.69356925  0.00093355
   0.33616930  0.67254578 -0.00208489
  -0.00065969 -0.00949230 -0.00013279
   0.00349018  0.69103740 -0.00000901
   0.69821267  0.01754491 -0.00020352
   0.98148543  0.30593282  0.00025696
   0.29681384 -0.01619301  0.00026388
   0.69777059  0.32836320 -0.00039546
   0.11393971  0.22288007  0.94712230
   0.22201352  0.11470215  0.05311877
   0.11014893  0.55291146  0.95383889
   0.22244301  0.44664315  0.04952503
   0.10667480  0.88838229  0.94300686
   0.22177563  0.77452701  0.05233867
   0.44457174  0.22388099  0.95464186
   0.54925080  0.10434121  0.04723194
   0.44454059  0.55712026  0.95357096
   0.55682928  0.44337204  0.04179305
   0.44546497  0.89180416  0.95301783
   0.55507139  0.77807505  0.04949902
   0.78395079  0.21968264  0.94233060
   0.89486770  0.10757791  0.05612899
   0.77248364  0.55608674  0.95099724
   0.89852412  0.44741562  0.05223619
   0.77672098  0.88371212  0.94619875
   0.88098064  0.77495227  0.05397246
unknown system                          
           1
     8.347487    4.861547    0.000000
    -8.328260    4.828327    0.000000
     0.000000    0.000000   30.000000
   V    Mo   W    S 
   3   3   3  18
Direct configuration=    23
   0.30580284  0.32547045  0.00093142
   0.67863381  0.69439011  0.00092932
   0.33773451  0.67320934 -0.00216081
  -0.00109864 -0.00925512 -0.00013828
   0.00223118  0.69067040  0.00002984
   0.69834494  0.01694753 -0.00024746
   0.98194970  0.30549164  0.00029056
   0.29610703 -0.01615857  0.00037121
   0.69874072  0.32902404 -0.00052438
   0.11392326  0.22266460  0.94697084
   0.22146273  0.11447577  0.05332114
   0.11005918  0.55292136  0.95413204
   0.22248809  0.44653630  0.04954807
   0.10634043  0.88827159  0.94303950
   0.22139193  0.77446543  0.05227120
   0.44463477  0.22390329  0.95485056
   0.54920921  0.10462234  0.04691813
   0.44465724  0.55685817  0.95367129
   0.55672815  0.44348954  0.04145997
   0.44561033  0.89263039  0.95302170
   0.55527845  0.77826441  0.04959324
   0.78449313  0.21966481  0.94230492
   0.89465296  0.10730253  0.05621572
   0.77236673  0.55624994  0.95088328
   0.89894218  0.44729283  0.05221862
   0.77673544  0.88374195  0.94607559
   0.88079413  0.77506937  0.05402268
unknown system                          
           1
     8.348481    4.862811    0.000000
    -8.329264    4.829599    0.000000
     0.000000    0.000000   30.000000
   V    Mo   W    S 
   3   3   3  18
Direct configuration=    24
   0.30621438  0.32627332  0.00079339
   0.67798033  0.69471568  0.00102791
   0.33242986  0.67048566 -0.00211971
  -0.00127269 -0.00956310 -0.00017987
   0.00368298  0.69104671 -0.00002858
   0.69951073  0.01776806 -0.00024970
   0.98255499  0.30584918  0.00034024
   0.29640585 -0.01629747  0.00029081
   0.69870854  0.32852849 -0.00044605
   0.11405582  0.22266796  0.94697288
   0.22183157  0.11463801  0.05317979
   0.10913857  0.55259264  0.95354196
   0.22266319  0.44654500  0.04978735
   0.10662262  0.88834245  0.94298104
   0.22143234  0.77480246  0.05248467
   0.44488773  0.22406503  0.95486533
   0.54950453  0.10444790  0.04695359
   0.44412253  0.55720352  0.95374293
   0.55705963  0.44374232  0.04142163
   0.44613297  0.89243462  0.95343119