   27   27  100    1
  0.9710400E+02  0.1002848E-08  0.1002848E-08  0.3000000E-08  0.5000000E-15
  1.000000000000000E-004
  CAR 
 unknown system                          
    159     34    120
 
  0.0000000E+00  0.0000000E+00  0.0000000E+00  0.1562500E-01
    1      -17.804631   1.000000
    2      -16.715478   1.000000
    3      -16.678757   1.000000
    4      -16.529233   1.000000
    5      -16.500890   1.000000
    6      -16.496939   1.000000
    7      -16.406396   1.000000
    8      -16.352161   1.000000
    9      -16.142187   1.000000
   10      -16.121672   1.000000
   11      -16.101559   1.000000
   12      -16.021164   1.000000
   13      -15.861403   1.000000
   14      -15.656796   1.000000
   15      -15.633871   1.000000
   16      -15.500240   1.000000
   17      -15.296667   1.000000
   18      -15.250424   1.000000
   19       -9.429609   1.000000
   20       -8.986016   1.000000
   21       -8.869360   1.000000
   22       -8.846251   1.000000
   23       -8.762572   1.000000
   24       -8.718318   1.000000
   25       -8.623573   1.000000
   26       -8.576367   1.000000
   27       -8.512349   1.000000
   28       -8.394862   1.000000
   29       -8.355791   1.000000
   30       -8.343397   1.000000
   31       -8.321341   1.000000
   32       -8.122719   1.000000
   33       -8.001359   1.000000
   34       -7.977316   1.000000
   35       -7.885582   1.000000
   36       -7.800663   1.000000
   37       -7.757710   1.000000
   38       -7.548321   1.000000
   39       -7.453662   1.000000
   40       -7.436886   1.000000
   41       -7.304466   1.000000
   42       -7.279171   1.000000
   43       -7.109423   1.000000
   44       -6.982648   1.000000
   45       -6.822468   1.000000
   46       -6.815140   1.000000
   47       -6.712900   1.000000
   48       -6.616189   1.000000
   49       -6.585238   1.000000
   50       -6.534961   1.000000
   51       -6.423319   1.000000
   52       -6.380022   1.000000
   53       -6.281113   1.000000
   54       -6.248628   1.000000
   55       -6.242147   1.000000
   56       -6.199018   1.000000
   57       -6.032729   1.000000
   58       -5.903122   1.000000
   59       -5.701794   1.000000
   60       -5.593981   1.000000
   61       -5.510674   1.000000
   62       -5.434400   1.000000
   63       -5.229888   1.000000
   64       -5.222404   1.000000
   65       -5.133178   1.000000
   66       -4.998865   1.000000
   67       -4.984461   1.000000
   68       -4.821654   1.000000
   69       -4.814903   1.000000
   70       -4.731894   1.000000
   71       -4.651640   1.000000
   72       -4.581221   1.000000
   73       -4.449571   1.000000
   74       -4.228791   1.000000
   75       -4.147679   1.000000
   76       -4.047884   1.000000
   77       -3.805390   0.999867
   78       -3.562246   0.973001
   79       -3.505277   0.936249
   80       -3.435673   0.848930
   81       -3.300282   0.529692
   82       -2.873228   0.001614
   83       -2.695252   0.000013
   84       -2.619586   0.000001
   85       -2.484215   0.000000
   86       -2.429293   0.000000
   87       -2.312185   0.000000
   88       -2.199951   0.000000
   89       -2.146931   0.000000
   90       -2.048088   0.000000
   91       -1.935723   0.000000
   92       -1.820840   0.000000
   93       -1.294368   0.000000
   94       -1.287960   0.000000
   95       -1.118879   0.000000
   96       -1.061931   0.000000
   97       -1.029717   0.000000
   98       -0.817093   0.000000
   99       -0.751572   0.000000
  100       -0.693408   0.000000
  101       -0.630319   0.000000
  102       -0.462227   0.000000
  103       -0.434608   0.000000
  104       -0.364841   0.000000
  105       -0.269416   0.000000
  106       -0.062677   0.000000
  107       -0.027749   0.000000
  108        0.014614   0.000000
  109        0.096921   0.000000
  110        0.308393   0.000000
  111        0.352383   0.000000
  112        0.436502   0.000000
  113        0.524284   0.000000
  114        0.868579   0.000000
  115        0.940357   0.000000
  116        1.043162   0.000000
  117        1.089545   0.000000
  118        1.621176   0.000000
  119        1.822306   0.000000
  120        2.131196   0.000000
 
  0.1250000E+00  0.2775558E-16  0.0000000E+00  0.3125000E-01
    1      -17.780783   1.000000
    2      -16.788315   1.000000
    3      -16.712559   1.000000
    4      -16.575001   1.000000
    5      -16.548185   1.000000
    6      -16.444325   1.000000
    7      -16.383182   1.000000
    8      -16.289162   1.000000
    9      -16.176433   1.000000
   10      -16.118613   1.000000
   11      -16.052095   1.000000
   12      -15.983690   1.000000
   13      -15.835869   1.000000
   14      -15.674622   1.000000
   15      -15.631881   1.000000
   16      -15.508124   1.000000
   17      -15.301280   1.000000
   18      -15.255953   1.000000
   19       -9.450839   1.000000
   20       -9.072797   1.000000
   21       -8.967595   1.000000
   22       -8.957499   1.000000
   23       -8.774122   1.000000
   24       -8.729017   1.000000
   25       -8.679418   1.000000
   26       -8.531744   1.000000
   27       -8.460215   1.000000
   28       -8.443716   1.000000
   29       -8.386398   1.000000
   30       -8.233467   1.000000
   31       -8.182828   1.000000
   32       -8.053506   1.000000
   33       -8.003605   1.000000
   34       -7.873225   1.000000
   35       -7.830601   1.000000
   36       -7.757136   1.000000
   37       -7.700486   1.000000
   38       -7.567682   1.000000
   39       -7.505782   1.000000
   40       -7.431171   1.000000
   41       -7.274966   1.000000
   42       -7.241970   1.000000
   43       -7.150951   1.000000
   44       -7.023321   1.000000
   45       -6.885031   1.000000
   46       -6.831926   1.000000
   47       -6.727403   1.000000
   48       -6.637705   1.000000
   49       -6.555653   1.000000
   50       -6.477589   1.000000
   51       -6.443295   1.000000
   52       -6.382171   1.000000
   53       -6.314469   1.000000
   54       -6.247475   1.000000
   55       -6.237540   1.000000
   56       -6.156603   1.000000
   57       -5.954141   1.000000
   58       -5.917271   1.000000
   59       -5.703833   1.000000
   60       -5.595566   1.000000
   61       -5.544261   1.000000
   62       -5.451752   1.000000
   63       -5.352610   1.000000
   64       -5.236210   1.000000
   65       -5.171607   1.000000
   66       -5.044701   1.000000
   67       -4.996059   1.000000
   68       -4.857688   1.000000
   69       -4.787833   1.000000
   70       -4.702716   1.000000
   71       -4.620628   1.000000
   72       -4.497752   1.000000
   73       -4.425725   1.000000
   74       -4.208776   1.000000
   75       -4.070214   1.000000
   76       -4.041009   1.000000
   77       -3.922374   0.999996
   78       -3.705559   0.998360
   79       -3.522274   0.949935
   80       -3.414806   0.811734
   81       -3.170787   0.200125
   82       -2.846498   0.000862
   83       -2.675890   0.000007
   84       -2.622500   0.000001
   85       -2.473261   0.000000
   86       -2.419159   0.000000
   87       -2.282553   0.000000
   88       -2.199096   0.000000
   89       -2.123343   0.000000
   90       -2.044619   0.000000
   91       -1.925965   0.000000
   92       -1.835844   0.000000
   93       -1.307442   0.000000
   94       -1.288382   0.000000
   95       -1.100631   0.000000
   96       -1.063860   0.000000
   97       -1.029717   0.000000
   98       -0.849312   0.000000
   99       -0.769087   0.000000
  100       -0.727032   0.000000
  101       -0.687522   0.000000
  102       -0.543945   0.000000
  103       -0.513829   0.000000
  104       -0.417783   0.000000
  105       -0.264451   0.000000
  106       -0.112559   0.000000
  107       -0.031919   0.000000
  108       -0.010866   0.000000
  109        0.087866   0.000000
  110        0.284767   0.000000
  111        0.383691   0.000000
  112        0.462088   0.000000
  113        0.590768   0.000000
  114        0.847406   0.000000
  115        0.960783   0.000000
  116        1.075564   0.000000
  117        1.117725   0.000000
  118        1.665643   0.000000
  119        1.860960   0.000000
  120        2.166178   0.000000
 
  0.2500000E+00  0.5551115E-16  0.0000000E+00  0.3125000E-01
    1      -17.711274   1.000000
    2      -16.981452   1.000000
    3      -16.727173   1.000000
    4      -16.629112   1.000000
    5      -16.604911   1.000000
    6      -16.391039   1.000000
    7      -16.354394   1.000000
    8      -16.237789   1.000000
    9      -16.153447   1.000000
   10      -16.077781   1.000000
   11      -16.027178   1.000000
   12      -15.919448   1.000000
   13      -15.780862   1.000000
   14      -15.704973   1.000000
   15      -15.621488   1.000000
   16      -15.529358   1.000000
   17      -15.314265   1.000000
   18      -15.268816   1.000000
   19       -9.564684   1.000000
   20       -9.242522   1.000000
   21       -9.112606   1.000000
   22       -9.028015   1.000000
   23       -8.824446   1.000000
   24       -8.777650   1.000000
   25       -8.654667   1.000000
   26       -8.511712   1.000000
   27       -8.461221   1.000000
   28       -8.366594   1.000000
   29       -8.307614   1.000000
   30       -8.169643   1.000000
   31       -8.146570   1.000000
   32       -8.038836   1.000000
   33       -7.899307   1.000000
   34       -7.782872   1.000000
   35       -7.741448   1.000000
   36       -7.676582   1.000000
   37       -7.621115   1.000000
   38       -7.498269   1.000000
   39       -7.472524   1.000000
   40       -7.386728   1.000000
   41       -7.311801   1.000000
   42       -7.185102   1.000000
   43       -7.140060   1.000000
   44       -7.036672   1.000000
   45       -6.914583   1.000000
   46       -6.866856   1.000000
   47       -6.766259   1.000000
   48       -6.644151   1.000000
   49       -6.581467   1.000000
   50       -6.473763   1.000000
   51       -6.421118   1.000000
   52       -6.376039   1.000000
   53       -6.305143   1.000000
   54       -6.228866   1.000000
   55       -6.191953   1.000000
   56       -6.063300   1.000000
   57       -5.951638   1.000000
   58       -5.879116   1.000000
   59       -5.740943   1.000000
   60       -5.708186   1.000000
   61       -5.629962   1.000000
   62       -5.588603   1.000000
   63       -5.531983   1.000000
   64       -5.285155   1.000000
   65       -5.201503   1.000000
   66       -5.054707   1.000000
   67       -4.992022   1.000000
   68       -4.885688   1.000000
   69       -4.771247   1.000000
   70       -4.616909   1.000000
   71       -4.532687   1.000000
   72       -4.398723   1.000000
   73       -4.367311   1.000000
   74       -4.269741   1.000000
   75       -4.128902   1.000000
   76       -4.048983   1.000000
   77       -3.969671   0.999999
   78       -3.837716   0.999947
   79       -3.472514   0.901884
   80       -3.419044   0.819713
   81       -3.028668   0.032438
   82       -2.783133   0.000170
   83       -2.652355   0.000003
   84       -2.598340   0.000001
   85       -2.461112   0.000000
   86       -2.392203   0.000000
   87       -2.249401   0.000000
   88       -2.161882   0.000000
   89       -2.075451   0.000000
   90       -2.023442   0.000000
   91       -1.896367   0.000000
   92       -1.846743   0.000000
   93       -1.341415   0.000000
   94       -1.295974   0.000000
   95       -1.101322   0.000000
   96       -1.053246   0.000000
   97       -1.034285   0.000000
   98       -0.965278   0.000000
   99       -0.866848   0.000000
  100       -0.817096   0.000000
  101       -0.730156   0.000000
  102       -0.687709   0.000000
  103       -0.621169   0.000000
  104       -0.501541   0.000000
  105       -0.347865   0.000000
  106       -0.230302   0.000000
  107       -0.106657   0.000000
  108       -0.017694   0.000000
  109        0.097259   0.000000
  110        0.216218   0.000000
  111        0.430340   0.000000
  112        0.506154   0.000000
  113        0.629823   0.000000
  114        0.851951   0.000000
  115        1.054884   0.000000
  116        1.151738   0.000000
  117        1.191593   0.000000
  118        1.788947   0.000000
  119        1.971638   0.000000
  120        2.269744   0.000000
 
  0.3750000E+00  0.0000000E+00  0.0000000E+00  0.3125000E-01
    1      -17.606042   1.000000
    2      -17.177620   1.000000
    3      -16.750846   1.000000
    4      -16.670445   1.000000
    5      -16.613161   1.000000
    6      -16.389705   1.000000
    7      -16.353287   1.000000
    8      -16.188088   1.000000
    9      -16.113781   1.000000
   10      -16.010103   1.000000
   11      -15.983800   1.000000
   12      -15.905835   1.000000
   13      -15.776247   1.000000
   14      -15.743291   1.000000
   15      -15.572894   1.000000
   16      -15.537915   1.000000
   17      -15.338723   1.000000
   18      -15.277046   1.000000
   19       -9.723446   1.000000
   20       -9.325802   1.000000
   21       -9.221142   1.000000
   22       -9.030189   1.000000
   23       -8.884151   1.000000
   24       -8.810095   1.000000
   25       -8.594233   1.000000
   26       -8.449088   1.000000
   27       -8.392042   1.000000
   28       -8.313889   1.000000
   29       -8.282625   1.000000
   30       -8.217479   1.000000
   31       -8.152047   1.000000
   32       -7.997872   1.000000
   33       -7.945348   1.000000
   34       -7.790651   1.000000
   35       -7.746497   1.000000
   36       -7.655981   1.000000
   37       -7.579456   1.000000
   38       -7.467572   1.000000
   39       -7.387711   1.000000
   40       -7.250865   1.000000
   41       -7.225269   1.000000
   42       -7.151344   1.000000
   43       -7.064956   1.000000
   44       -7.015170   1.000000
   45       -6.877899   1.000000
   46       -6.851652   1.000000
   47       -6.696147   1.000000
   48       -6.604905   1.000000
   49       -6.579728   1.000000
   50       -6.513319   1.000000
   51       -6.414009   1.000000
   52       -6.353963   1.000000
   53       -6.263895   1.000000
   54       -6.195292   1.000000
   55       -6.144648   1.000000
   56       -6.063175   1.000000
   57       -6.023415   1.000000
   58       -5.951852   1.000000
   59       -5.860951   1.000000
   60       -5.811784   1.000000
   61       -5.749574   1.000000
   62       -5.673744   1.000000
   63       -5.573696   1.000000
   64       -5.382173   1.000000
   65       -5.177521   1.000000
   66       -4.995047   1.000000
   67       -4.958535   1.000000
   68       -4.870787   1.000000
   69       -4.813412   1.000000
   70       -4.687737   1.000000
   71       -4.527276   1.000000
   72       -4.444339   1.000000
   73       -4.329182   1.000000
   74       -4.248691   1.000000
   75       -4.158318   1.000000
   76       -4.087665   1.000000
   77       -3.988495   1.000000
   78       -3.720980   0.998853
   79       -3.465831   0.893453
   80       -3.417178   0.816225
   81       -2.943830   0.007222
   82       -2.725806   0.000033
   83       -2.639943   0.000002
   84       -2.560299   0.000000
   85       -2.454806   0.000000
   86       -2.344694   0.000000
   87       -2.255543   0.000000
   88       -2.106330   0.000000
   89       -2.059854   0.000000
   90       -1.979387   0.000000
   91       -1.839269   0.000000
   92       -1.815724   0.000000
   93       -1.378623   0.000000
   94       -1.315638   0.000000
   95       -1.180281   0.000000
   96       -1.120805   0.000000
   97       -1.057413   0.000000
   98       -0.998658   0.000000
   99       -0.927111   0.000000
  100       -0.891562   0.000000
  101       -0.841283   0.000000
  102       -0.763060   0.000000
  103       -0.704905   0.000000
  104       -0.539085   0.000000
  105       -0.440471   0.000000
  106       -0.287504   0.000000
  107       -0.189043   0.000000
  108       -0.038441   0.000000
  109        0.052917   0.000000
  110        0.137280   0.000000
  111        0.458844   0.000000
  112        0.536845   0.000000
  113        0.631707   0.000000
  114        0.890057   0.000000
  115        1.155891   0.000000
  116        1.226571   0.000000
  117        1.273106   0.000000
  118        1.972455   0.000000
  119        2.143671   0.000000
  120        2.436763   0.000000
 
  0.5000000E+00  0.1110223E-15  0.0000000E+00  0.1562500E-01
    1      -17.526504   1.000000
    2      -17.289585   1.000000
    3      -16.761836   1.000000
    4      -16.684521   1.000000
    5      -16.610863   1.000000
    6      -16.401112   1.000000
    7      -16.349181   1.000000
    8      -16.171822   1.000000
    9      -16.094235   1.000000
   10      -15.970151   1.000000
   11      -15.940538   1.000000
   12      -15.925547   1.000000
   13      -15.783893   1.000000
   14      -15.774072   1.000000
   15      -15.574966   1.000000
   16      -15.502514   1.000000
   17      -15.358499   1.000000
   18      -15.278094   1.000000
   19       -9.789159   1.000000
   20       -9.354157   1.000000
   21       -9.258966   1.000000
   22       -9.025073   1.000000
   23       -8.906330   1.000000
   24       -8.806097   1.000000
   25       -8.566788   1.000000
   26       -8.424263   1.000000
   27       -8.371927   1.000000
   28       -8.302180   1.000000
   29       -8.276735   1.000000
   30       -8.217552   1.000000
   31       -8.115213   1.000000
   32       -8.048212   1.000000
   33       -7.922102   1.000000
   34       -7.843709   1.000000
   35       -7.811582   1.000000
   36       -7.642666   1.000000
   37       -7.593201   1.000000
   38       -7.444658   1.000000
   39       -7.368389   1.000000
   40       -7.164679   1.000000
   41       -7.151672   1.000000
   42       -7.100496   1.000000
   43       -7.070050   1.000000
   44       -6.984027   1.000000
   45       -6.874077   1.000000
   46       -6.781640   1.000000
   47       -6.635216   1.000000
   48       -6.614126   1.000000
   49       -6.548494   1.000000
   50       -6.476105   1.000000
   51       -6.403626   1.000000
   52       -6.342520   1.000000
   53       -6.299824   1.000000
   54       -6.278529   1.000000
   55       -6.221561   1.000000
   56       -6.106440   1.000000
   57       -6.017709   1.000000
   58       -5.949774   1.000000
   59       -5.875886   1.000000
   60       -5.810957   1.000000
   61       -5.758195   1.000000
   62       -5.618895   1.000000
   63       -5.605011   1.000000
   64       -5.451768   1.000000
   65       -5.212180   1.000000
   66       -5.039114   1.000000
   67       -4.961857   1.000000
   68       -4.922217   1.000000
   69       -4.842476   1.000000
   70       -4.663894   1.000000
   71       -4.508465   1.000000
   72       -4.421334   1.000000
   73       -4.324625   1.000000
   74       -4.239339   1.000000
   75       -4.223424   1.000000
   76       -4.069734   1.000000
   77       -3.961923   0.999999
   78       -3.646712   0.994201
   79       -3.503620   0.934773
   80       -3.401112   0.784498
   81       -2.916427   0.004148
   82       -2.710551   0.000021
   83       -2.620374   0.000001
   84       -2.556922   0.000000
   85       -2.448063   0.000000
   86       -2.310225   0.000000
   87       -2.265811   0.000000
   88       -2.097030   0.000000
   89       -2.048631   0.000000
   90       -1.963348   0.000000
   91       -1.812903   0.000000
   92       -1.778813   0.000000
   93       -1.395024   0.000000
   94       -1.320971   0.000000
   95       -1.251558   0.000000
   96       -1.139984   0.000000
   97       -1.088341   0.000000
   98       -1.024629   0.000000
   99       -0.933540   0.000000
  100       -0.907989   0.000000
  101       -0.877095   0.000000
  102       -0.783420   0.000000
  103       -0.754125   0.000000
  104       -0.556129   0.000000
  105       -0.455090   0.000000
  106       -0.314148   0.000000
  107       -0.224284   0.000000
  108       -0.033995   0.000000
  109        0.005470   0.000000
  110        0.110722   0.000000
  111        0.467838   0.000000
  112        0.547652   0.000000
  113        0.632546   0.000000
  114        0.907434   0.000000
  115        1.191354   0.000000
  116        1.259146   0.000000
  117        1.307300   0.000000
  118        2.190679   0.000000
  119        2.215280   0.000000
  120        2.361972   0.000000
 
  0.0000000E+00  0.1250000E+00  0.0000000E+00  0.3125000E-01
    1      -17.780422   1.000000
    2      -16.793465   1.000000
    3      -16.685986   1.000000
    4      -16.619534   1.000000
    5      -16.541676   1.000000
    6      -16.419390   1.000000
    7      -16.353409   1.000000
    8      -16.334300   1.000000
    9      -16.192663   1.000000
   10      -16.106375   1.000000
   11      -16.041807   1.000000
   12      -15.970070   1.000000
   13      -15.855453   1.000000
   14      -15.678059   1.000000
   15      -15.627485   1.000000
   16      -15.500090   1.000000
   17      -15.294642   1.000000
   18      -15.264620   1.000000
   19       -9.425317   1.000000
   20       -9.082144   1.000000
   21       -9.012821   1.000000
   22       -8.942405   1.000000
   23       -8.794941   1.000000
   24       -8.712686   1.000000
   25       -8.645521   1.000000
   26       -8.590297   1.000000
   27       -8.475736   1.000000
   28       -8.396362   1.000000
   29       -8.377417   1.000000
   30       -8.304453   1.000000
   31       -8.112849   1.000000
   32       -8.059157   1.000000
   33       -8.017489   1.000000
   34       -7.909761   1.000000
   35       -7.801062   1.000000
   36       -7.730219   1.000000
   37       -7.682532   1.000000
   38       -7.573871   1.000000
   39       -7.546161   1.000000
   40       -7.368613   1.000000
   41       -7.323907   1.000000
   42       -7.243062   1.000000
   43       -7.119120   1.000000
   44       -6.997724   1.000000
   45       -6.937148   1.000000
   46       -6.841533   1.000000
   47       -6.714918   1.000000
   48       -6.606913   1.000000
   49       -6.528175   1.000000
   50       -6.489763   1.000000
   51       -6.424538   1.000000
   52       -6.398965   1.000000
   53       -6.335606   1.000000
   54       -6.248510   1.000000
   55       -6.209301   1.000000
   56       -6.180656   1.000000
   57       -5.973118   1.000000
   58       -5.930048   1.000000
   59       -5.684503   1.000000
   60       -5.590255   1.000000
   61       -5.544219   1.000000
   62       -5.460981   1.000000
   63       -5.308816   1.000000
   64       -5.229379   1.000000
   65       -5.172480   1.000000
   66       -5.024648   1.000000
   67       -4.969150   1.000000
   68       -4.951677   1.000000
   69       -4.782040   1.000000
   70       -4.713908   1.000000
   71       -4.687030   1.000000
   72       -4.506236   1.000000
   73       -4.400321   1.000000
   74       -4.222654   1.000000
   75       -4.045991   1.000000
   76       -4.018524   1.000000
   77       -3.858165   0.999971
   78       -3.772324   0.999678
   79       -3.558118   0.971130
   80       -3.315665   0.572706
   81       -3.210754   0.288229
   82       -2.840123   0.000738
   83       -2.681918   0.000009
   84       -2.632534   0.000002
   85       -2.478979   0.000000
   86       -2.402466   0.000000
   87       -2.295710   0.000000
   88       -2.203212   0.000000
   89       -2.133275   0.000000
   90       -2.049031   0.000000
   91       -1.932415   0.000000
   92       -1.818110   0.000000
   93       -1.301421   0.000000
   94       -1.286433   0.000000
   95       -1.120532   0.000000
   96       -1.059533   0.000000
   97       -1.015279   0.000000
   98       -0.853464   0.000000
   99       -0.788306   0.000000
  100       -0.698283   0.000000
  101       -0.661881   0.000000
  102       -0.558578   0.000000
  103       -0.468176   0.000000
  104       -0.414561   0.000000
  105       -0.264027   0.000000
  106       -0.120666   0.000000
  107       -0.037597   0.000000
  108       -0.008077   0.000000
  109        0.054257   0.000000
  110        0.279205   0.000000
  111        0.386657   0.000000
  112        0.473888   0.000000
  113        0.620973   0.000000
  114        0.814179   0.000000
  115        0.974441   0.000000
  116        1.054076   0.000000
  117        1.099468   0.000000
  118        1.664024   0.000000
  119        1.860220   0.000000
  120        2.165833   0.000000
 
  0.1250000E+00  0.1250000E+00  0.0000000E+00  0.3125000E-01
    1      -17.733298   1.000000
    2      -16.904883   1.000000
    3      -16.775482   1.000000
    4      -16.651234   1.000000
    5      -16.494598   1.000000
    6      -16.423634   1.000000
    7      -16.322521   1.000000
    8      -16.303662   1.000000
    9      -16.176398   1.000000
   10      -16.098575   1.000000
   11      -16.020167   1.000000
   12      -15.907468   1.000000
   13      -15.816599   1.000000
   14      -15.692990   1.000000
   15      -15.634843   1.000000
   16      -15.506435   1.000000
   17      -15.303448   1.000000
   18      -15.274887   1.000000
   19       -9.476717   1.000000
   20       -9.228157   1.000000
   21       -9.147398   1.000000
   22       -9.017768   1.000000
   23       -8.801266   1.000000
   24       -8.717042   1.000000
   25       -8.663048   1.000000
   26       -8.553252   1.000000
   27       -8.448068   1.000000
   28       -8.389005   1.000000
   29       -8.314485   1.000000
   30       -8.240115   1.000000
   31       -8.128010   1.000000
   32       -8.044169   1.000000
   33       -7.931438   1.000000
   34       -7.829675   1.000000
   35       -7.773013   1.000000
   36       -7.674193   1.000000
   37       -7.635610   1.000000
   38       -7.500524   1.000000
   39       -7.439602   1.000000
   40       -7.347451   1.000000
   41       -7.329243   1.000000
   42       -7.232813   1.000000
   43       -7.133694   1.000000
   44       -7.027283   1.000000
   45       -6.961296   1.000000
   46       -6.839965   1.000000
   47       -6.742450   1.000000
   48       -6.633360   1.000000
   49       -6.575798   1.000000
   50       -6.487241   1.000000
   51       -6.427027   1.000000
   52       -6.349828   1.000000
   53       -6.324193   1.000000
   54       -6.240194   1.000000
   55       -6.169997   1.000000
   56       -6.139523   1.000000
   57       -5.962119   1.000000
   58       -5.888186   1.000000
   59       -5.733989   1.000000
   60       -5.658162   1.000000
   61       -5.587602   1.000000
   62       -5.504846   1.000000
   63       -5.410398   1.000000
   64       -5.304093   1.000000
   65       -5.200537   1.000000
   66       -5.107362   1.000000
   67       -5.022575   1.000000
   68       -4.922072   1.000000
   69       -4.766505   1.000000
   70       -4.681493   1.000000
   71       -4.579636   1.000000
   72       -4.425505   1.000000
   73       -4.353591   1.000000
   74       -4.199173   1.000000
   75       -4.144152   1.000000
   76       -4.035141   1.000000
   77       -3.938609   0.999998
   78       -3.822121   0.999917
   79       -3.527797   0.953839
   80       -3.319334   0.582859
   81       -3.077059   0.066300
   82       -2.800760   0.000272
   83       -2.656730   0.000004
   84       -2.628944   0.000001
   85       -2.466085   0.000000
   86       -2.393287   0.000000
   87       -2.284178   0.000000
   88       -2.176374   0.000000
   89       -2.110687   0.000000
   90       -2.036103   0.000000
   91       -1.917232   0.000000
   92       -1.813769   0.000000
   93       -1.327880   0.000000
   94       -1.283506   0.000000
   95       -1.123658   0.000000
   96       -1.043422   0.000000
   97       -1.017412   0.000000
   98       -0.907759   0.000000
   99       -0.865977   0.000000
  100       -0.767254   0.000000
  101       -0.675104   0.000000
  102       -0.654343   0.000000
  103       -0.546323   0.000000
  104       -0.471639   0.000000
  105       -0.365436   0.000000
  106       -0.180104   0.000000
  107       -0.104430   0.000000
  108        0.000660   0.000000
  109        0.066916   0.000000
  110        0.237311   0.000000
  111        0.414265   0.000000
  112        0.527756   0.000000
  113        0.644791   0.000000
  114        0.794133   0.000000
  115        1.016609   0.000000
  116        1.094516   0.000000
  117        1.168441   0.000000
  118        1.746932   0.000000
  119        1.934557   0.000000
  120        2.234846   0.000000
 
  0.2500000E+00  0.1250000E+00  0.0000000E+00  0.3125000E-01
    1      -17.644464   1.000000
    2      -17.077083   1.000000
    3      -16.872517   1.000000
    4      -16.643743   1.000000
    5      -16.498430   1.000000
    6      -16.382567   1.000000
    7      -16.343283   1.000000
    8      -16.244758   1.000000
    9      -16.129151   1.000000
   10      -16.081658   1.000000
   11      -15.975562   1.000000
   12      -15.895774   1.000000
   13      -15.782106   1.000000
   14      -15.709885   1.000000
   15      -15.612373   1.000000
   16      -15.516283   1.000000
   17      -15.330620   1.000000
   18      -15.274949   1.000000
   19       -9.630466   1.000000
   20       -9.368461   1.000000
   21       -9.253731   1.000000
   22       -9.042881   1.000000
   23       -8.801172   1.000000
   24       -8.735306   1.000000
   25       -8.601193   1.000000
   26       -8.464612   1.000000
   27       -8.410909   1.000000
   28       -8.367098   1.000000
   29       -8.286901   1.000000
   30       -8.178667   1.000000
   31       -8.138835   1.000000
   32       -8.069328   1.000000
   33       -7.968335   1.000000
   34       -7.858795   1.000000
   35       -7.764262   1.000000
   36       -7.645987   1.000000
   37       -7.536544   1.000000
   38       -7.465833   1.000000
   39       -7.348282   1.000000
   40       -7.306080   1.000000
   41       -7.219860   1.000000
   42       -7.194137   1.000000
   43       -7.114345   1.000000
   44       -6.960895   1.000000
   45       -6.897973   1.000000
   46       -6.816388   1.000000
   47       -6.721235   1.000000