       N       E                     dE             d eps       ncg     rms          rms(c)
DAV:   1     0.112438158010E+04    0.11244E+04   -0.35873E+04  8160   0.577E+02
DAV:   2     0.367690630556E+01   -0.11207E+04   -0.10725E+04 10920   0.173E+02
DAV:   3    -0.199325448055E+03   -0.20300E+03   -0.19425E+03 10880   0.827E+01
DAV:   4    -0.208955362077E+03   -0.96299E+01   -0.93447E+01 11880   0.268E+01
DAV:   5    -0.209319233402E+03   -0.36387E+00   -0.36295E+00 11480   0.400E+00    0.275E+01
DAV:   6    -0.237930075148E+03   -0.28611E+02   -0.10694E+02 12360   0.601E+01    0.595E+01
DAV:   7    -0.196562808955E+03    0.41367E+02   -0.17601E+02 13520   0.153E+02    0.200E+01
DAV:   8    -0.189489259853E+03    0.70735E+01   -0.17938E+01 12200   0.127E+01    0.125E+01
DAV:   9    -0.188166985861E+03    0.13223E+01   -0.31384E+00 13480   0.624E+00    0.925E+00
DAV:  10    -0.186958030191E+03    0.12090E+01   -0.17576E+00 13400   0.770E+00    0.217E+00
DAV:  11    -0.187061838144E+03   -0.10381E+00   -0.59129E-01 13520   0.305E+00    0.389E+00
DAV:  12    -0.187005691271E+03    0.56147E-01   -0.83242E-01 12760   0.459E+00    0.370E+00
DAV:  13    -0.186887385370E+03    0.11831E+00   -0.30454E-01 13120   0.298E+00    0.187E+00
DAV:  14    -0.186850334832E+03    0.37051E-01   -0.10754E-01 13280   0.176E+00    0.904E-01
DAV:  15    -0.186848158703E+03    0.21761E-02   -0.29010E-02 12600   0.905E-01    0.818E-01
DAV:  16    -0.186842458797E+03    0.56999E-02   -0.11074E-02 13280   0.532E-01    0.274E-01
DAV:  17    -0.186841245380E+03    0.12134E-02   -0.44664E-03 12560   0.286E-01    0.182E-01
DAV:  18    -0.186841015619E+03    0.22976E-03   -0.18428E-03 11640   0.147E-01    0.130E-01
DAV:  19    -0.186840819752E+03    0.19587E-03   -0.81136E-04 10840   0.885E-02    0.585E-02
DAV:  20    -0.186841569354E+03   -0.74960E-03   -0.68499E-04  9120   0.738E-02    0.550E-02
DAV:  21    -0.186842402744E+03   -0.83339E-03   -0.24087E-04  8000   0.492E-02    0.321E-02
DAV:  22    -0.186843352367E+03   -0.94962E-03   -0.15776E-04  7560   0.383E-02    0.309E-02
DAV:  23    -0.186844506963E+03   -0.11546E-02   -0.10602E-04  7520   0.363E-02    0.130E-02
DAV:  24    -0.186845059078E+03   -0.55212E-03   -0.23871E-05  6800   0.152E-02    0.475E-03
DAV:  25    -0.186845453711E+03   -0.39463E-03   -0.16040E-05  5440   0.957E-03    0.320E-03
DAV:  26    -0.186845695367E+03   -0.24166E-03   -0.92956E-06  6840   0.702E-03    0.166E-03
DAV:  27    -0.186845783871E+03   -0.88504E-04   -0.32911E-06  7320   0.405E-03
   1 F= -.18684578E+03 E0= -.18667481E+03  d E =-.186846E+03
       N       E                     dE             d eps       ncg     rms          rms(c)
DAV:   1    -0.187499873969E+03   -0.65418E+00   -0.27222E+02  8160   0.350E+01    0.460E+00
DAV:   2    -0.189346021320E+03   -0.18461E+01   -0.19881E+01 12240   0.150E+01    0.856E+00
DAV:   3    -0.189359872038E+03   -0.13851E-01   -0.39309E+00 12400   0.120E+01    0.659E+00
DAV:   4    -0.188757107050E+03    0.60276E+00   -0.64178E-01 12520   0.476E+00    0.198E+00
DAV:   5    -0.188848448731E+03   -0.91342E-01   -0.41409E-01 11800   0.339E+00    0.484E+00
DAV:   6    -0.188755981574E+03    0.92467E-01   -0.73378E-01 12560   0.436E+00    0.270E+00
DAV:   7    -0.188676230955E+03    0.79751E-01   -0.21307E-01 12480   0.162E+00    0.101E+00
DAV:   8    -0.188661794881E+03    0.14436E-01   -0.50097E-02 11440   0.737E-01    0.659E-01
DAV:   9    -0.188657218237E+03    0.45766E-02   -0.12283E-02 12760   0.444E-01    0.441E-01
DAV:  10    -0.188657194412E+03    0.23825E-04   -0.57481E-03 11920   0.414E-01    0.412E-01
DAV:  11    -0.188655861341E+03    0.13331E-02   -0.36953E-03 12880   0.305E-01    0.128E-01
DAV:  12    -0.188655863181E+03   -0.18405E-05   -0.96798E-04 11760   0.990E-02
   2 F= -.18865586E+03 E0= -.18851712E+03  d E =-.181008E+01
       N       E                     dE             d eps       ncg     rms          rms(c)
DAV:   1    -0.190582356074E+03   -0.19265E+01   -0.31125E+01  9200   0.142E+01    0.445E+00
DAV:   2    -0.190528466688E+03    0.53889E-01   -0.27746E+00 11520   0.945E+00    0.718E+00
DAV:   3    -0.190064447707E+03    0.46402E+00   -0.12911E+00 12320   0.862E+00    0.425E+00
DAV:   4    -0.189852636501E+03    0.21181E+00   -0.68010E-01 13000   0.432E+00    0.253E+00
DAV:   5    -0.189822018548E+03    0.30618E-01   -0.36780E-01 12240   0.307E+00    0.281E+00
DAV:   6    -0.189751375209E+03    0.70643E-01   -0.15827E-01 12680   0.250E+00    0.752E-01
DAV:   7    -0.189745528040E+03    0.58472E-02   -0.15742E-02 11600   0.608E-01    0.384E-01
DAV:   8    -0.189745460444E+03    0.67596E-04   -0.58631E-03 12640   0.467E-01    0.346E-01
DAV:   9    -0.189744584646E+03    0.87580E-03   -0.21732E-03 11400   0.252E-01    0.121E-01
DAV:  10    -0.189745016451E+03   -0.43181E-03   -0.99508E-04 10640   0.106E-01    0.138E-01
DAV:  11    -0.189744708448E+03    0.30800E-03   -0.55722E-04  9600   0.843E-02    0.194E-02
DAV:  12    -0.189744730899E+03   -0.22450E-04   -0.64623E-05  7120   0.249E-02
   3 F= -.18974473E+03 E0= -.18962846E+03  d E =-.108887E+01
       N       E                     dE             d eps       ncg     rms          rms(c)
DAV:   1    -0.191299801126E+03   -0.15551E+01   -0.74223E+01  8160   0.196E+01    0.456E+00
DAV:   2    -0.191106027541E+03    0.19377E+00   -0.52549E+00 13440   0.750E+00    0.438E+00
DAV:   3    -0.191306320566E+03   -0.20029E+00   -0.14857E+00 12200   0.903E+00    0.733E+00
DAV:   4    -0.190898783081E+03    0.40754E+00   -0.16780E+00 11920   0.851E+00    0.352E+00
DAV:   5    -0.190903793911E+03   -0.50108E-02   -0.69537E-01 10960   0.545E+00    0.355E+00
DAV:   6    -0.190729019411E+03    0.17477E+00   -0.20363E-01 11400   0.313E+00    0.610E-01
DAV:   7    -0.190731721931E+03   -0.27025E-02   -0.34583E-02 12400   0.889E-01    0.737E-01
DAV:   8    -0.190728341785E+03    0.33801E-02   -0.17633E-02 11760   0.903E-01    0.534E-01
DAV:   9    -0.190725332318E+03    0.30095E-02   -0.46757E-03 11360   0.444E-01    0.150E-01
DAV:  10    -0.190725651364E+03   -0.31905E-03   -0.14574E-03 10080   0.138E-01    0.105E-01
DAV:  11    -0.190725499882E+03    0.15148E-03   -0.58572E-04  9880   0.909E-02    0.439E-02
DAV:  12    -0.190725498352E+03    0.15294E-05   -0.10340E-04  7120   0.359E-02
   4 F= -.19072550E+03 E0= -.19062790E+03  d E =-.980767E+00
       N       E                     dE             d eps       ncg     rms          rms(c)
DAV:   1    -0.192199861691E+03   -0.14744E+01   -0.17532E+02  8160   0.295E+01    0.587E+00
DAV:   2    -0.191896921547E+03    0.30294E+00   -0.98632E+00 10960   0.810E+00    0.404E+00
DAV:   3    -0.192373391183E+03   -0.47647E+00   -0.28128E+00 12200   0.109E+01    0.867E+00
DAV:   4    -0.191688125541E+03    0.68527E+00   -0.23513E+00 11560   0.110E+01    0.351E+00
DAV:   5    -0.191633699596E+03    0.54426E-01   -0.58681E-01 12240   0.565E+00    0.442E+00
DAV:   6    -0.191476130100E+03    0.15757E+00   -0.63445E-01 12320   0.524E+00    0.164E+00
DAV:   7    -0.191464910535E+03    0.11220E-01   -0.10147E-01 12480   0.188E+00    0.121E+00
DAV:   8    -0.191448725073E+03    0.16185E-01   -0.33591E-02 12240   0.139E+00    0.473E-01
DAV:   9    -0.191445920361E+03    0.28047E-02   -0.74303E-03 11360   0.493E-01    0.199E-01
DAV:  10    -0.191446055572E+03   -0.13521E-03   -0.28582E-03 11560   0.214E-01    0.104E-01
DAV:  11    -0.191445973107E+03    0.82465E-04   -0.61044E-04 10560   0.934E-02
   5 F= -.19144597E+03 E0= -.19135290E+03  d E =-.720475E+00
       N       E                     dE             d eps       ncg     rms          rms(c)
DAV:   1    -0.191519179243E+03   -0.73124E-01   -0.60997E+00  8160   0.520E+00    0.735E-01
DAV:   2    -0.191593020464E+03   -0.73841E-01   -0.31211E-01 13120   0.342E+00    0.241E+00
DAV:   3    -0.191528048323E+03    0.64972E-01   -0.11313E-01 12600   0.257E+00    0.334E-01
DAV:   4    -0.191530616443E+03   -0.25681E-02   -0.12124E-02 11520   0.738E-01    0.679E-01
DAV:   5    -0.191526400292E+03    0.42162E-02   -0.95802E-03 10800   0.702E-01    0.238E-01
DAV:   6    -0.191526708652E+03   -0.30836E-03   -0.37308E-03 11400   0.328E-01    0.275E-01
DAV:   7    -0.191526349098E+03    0.35955E-03   -0.34491E-03 11360   0.399E-01    0.232E-01
DAV:   8    -0.191525795052E+03    0.55405E-03   -0.10999E-03  9920   0.217E-01    0.414E-02
DAV:   9    -0.191525793536E+03    0.15161E-05   -0.10005E-04  6520   0.424E-02
   6 F= -.19152579E+03 E0= -.19143090E+03  d E =-.798204E-01
       N       E                     dE             d eps       ncg     rms          rms(c)
DAV:   1    -0.191626143462E+03   -0.10035E+00   -0.16463E+01  8160   0.846E+00    0.967E-01
DAV:   2    -0.191727159759E+03   -0.10102E+00   -0.46154E-01 13080   0.368E+00    0.278E+00
DAV:   3    -0.191641327840E+03    0.85832E-01   -0.18122E-01 12520   0.323E+00    0.641E-01
DAV:   4    -0.191648253017E+03   -0.69252E-02   -0.32565E-02 12000   0.123E+00    0.109E+00
DAV:   5    -0.191636792799E+03    0.11460E-01   -0.24058E-02 11800   0.109E+00    0.314E-01
DAV:   6    -0.191638282346E+03   -0.14895E-02   -0.79659E-03 11320   0.535E-01    0.480E-01
DAV:   7    -0.191636729040E+03    0.15533E-02   -0.77417E-03 11640   0.616E-01    0.289E-01
DAV:   8    -0.191635790212E+03    0.93883E-03   -0.19226E-03 10320   0.271E-01    0.553E-02
DAV:   9    -0.191635767277E+03    0.22935E-04   -0.22256E-04  7640   0.568E-02
   7 F= -.19163577E+03 E0= -.19154016E+03  d E =-.109974E+00
       N       E                     dE             d eps       ncg     rms          rms(c)
DAV:   1    -0.191665182472E+03   -0.29392E-01   -0.96485E-01  8160   0.216E+00    0.377E-01
DAV:   2    -0.191672474017E+03   -0.72915E-02   -0.49653E-02 12040   0.123E+00    0.863E-01
DAV:   3    -0.191664245912E+03    0.82281E-02   -0.17998E-02 11760   0.103E+00    0.220E-01
DAV:   4    -0.191664374412E+03   -0.12850E-03   -0.41786E-03 11880   0.393E-01    0.335E-01
DAV:   5    -0.191663593130E+03    0.78128E-03   -0.38005E-03 11080   0.443E-01    0.217E-01
DAV:   6    -0.191663114593E+03    0.47854E-03   -0.13676E-03 10360   0.221E-01    0.676E-02
DAV:   7    -0.191663106044E+03    0.85490E-05   -0.38573E-04  7880   0.111E-01
   8 F= -.19166311E+03 E0= -.19156703E+03  d E =-.273388E-01
       N       E                     dE             d eps       ncg     rms          rms(c)
DAV:   1    -0.191719444155E+03   -0.56330E-01   -0.59853E+00  8160   0.514E+00    0.548E-01
DAV:   2    -0.191746926824E+03   -0.27483E-01   -0.17247E-01 12760   0.203E+00    0.134E+00
DAV:   3    -0.191727153919E+03    0.19773E-01   -0.47972E-02 12480   0.163E+00    0.396E-01
DAV:   4    -0.191728385078E+03   -0.12312E-02   -0.10019E-02 12400   0.672E-01    0.556E-01
DAV:   5    -0.191725429562E+03    0.29555E-02   -0.68478E-03 10680   0.622E-01    0.220E-01
DAV:   6    -0.191725342310E+03    0.87252E-04   -0.23970E-03 11200   0.256E-01    0.145E-01
DAV:   7    -0.191725069729E+03    0.27258E-03   -0.11799E-03 10720   0.181E-01    0.121E-01
DAV:   8    -0.191724951964E+03    0.11776E-03   -0.45000E-04  8920   0.139E-01    0.545E-02
DAV:   9    -0.191724928843E+03    0.23121E-04   -0.72467E-05  5960   0.519E-02
   9 F= -.19172493E+03 E0= -.19162930E+03  d E =-.618228E-01
       N       E                     dE             d eps       ncg     rms          rms(c)
DAV:   1    -0.191750852856E+03   -0.25901E-01   -0.96053E-01  8160   0.212E+00    0.307E-01
DAV:   2    -0.191756656525E+03   -0.58037E-02   -0.40965E-02 13000   0.104E+00    0.706E-01
DAV:   3    -0.191751323634E+03    0.53329E-02   -0.12682E-02 11640   0.842E-01    0.208E-01
DAV:   4    -0.191751956104E+03   -0.63247E-03   -0.40611E-03 11680   0.421E-01    0.369E-01
DAV:   5    -0.191750688640E+03    0.12675E-02   -0.30863E-03 10960   0.401E-01    0.133E-01
DAV:   6    -0.191750594322E+03    0.94318E-04   -0.90958E-04  9880   0.163E-01
  10 F= -.19175059E+03 E0= -.19165505E+03  d E =-.256655E-01
       N       E                     dE             d eps       ncg     rms          rms(c)
DAV:   1    -0.191808928586E+03   -0.58240E-01   -0.67321E+00  8160   0.552E+00    0.605E-01
DAV:   2    -0.191837545667E+03   -0.28617E-01   -0.21904E-01 12440   0.206E+00    0.142E+00
DAV:   3    -0.191820239110E+03    0.17307E-01   -0.62215E-02 12400   0.167E+00    0.584E-01
DAV:   4    -0.191821764216E+03   -0.15251E-02   -0.18951E-02 12200   0.952E-01    0.715E-01
DAV:   5    -0.191816007485E+03    0.57567E-02   -0.97696E-03 11400   0.766E-01    0.197E-01
DAV:   6    -0.191816183302E+03   -0.17582E-03   -0.34634E-03 10920   0.265E-01    0.166E-01
DAV:   7    -0.191815742934E+03    0.44037E-03   -0.14708E-03 10800   0.212E-01    0.132E-01
DAV:   8    -0.191815598353E+03    0.14458E-03   -0.44433E-04  8680   0.150E-01    0.522E-02
DAV:   9    -0.191815569490E+03    0.28863E-04   -0.71499E-05  6040   0.486E-02
  11 F= -.19181557E+03 E0= -.19172086E+03  d E =-.649752E-01
       N       E                     dE             d eps       ncg     rms          rms(c)
DAV:   1    -0.191841690859E+03   -0.26093E-01   -0.10157E+00  8160   0.219E+00    0.303E-01
DAV:   2    -0.191846643040E+03   -0.49522E-02   -0.42295E-02 12200   0.897E-01    0.682E-01
DAV:   3    -0.191842981282E+03    0.36618E-02   -0.14636E-02 11760   0.802E-01    0.315E-01
DAV:   4    -0.191842639918E+03    0.34136E-03   -0.40436E-03 11480   0.433E-01    0.279E-01
DAV:   5    -0.191841875041E+03    0.76488E-03   -0.22515E-03 10560   0.380E-01    0.151E-01
DAV:   6    -0.191841667213E+03    0.20783E-03   -0.10867E-03  9800   0.193E-01    0.783E-02
DAV:   7    -0.191841636997E+03    0.30217E-04   -0.40039E-04  8400   0.126E-01
  12 F= -.19184164E+03 E0= -.19174711E+03  d E =-.260675E-01
       N       E                     dE             d eps       ncg     rms          rms(c)
DAV:   1    -0.191893833609E+03   -0.52166E-01   -0.52754E+00  8160   0.491E+00    0.537E-01
DAV:   2    -0.191915144598E+03   -0.21311E-01   -0.17423E-01 11600   0.163E+00    0.125E+00
DAV:   3    -0.191903960413E+03    0.11184E-01   -0.50224E-02 12520   0.145E+00    0.567E-01
DAV:   4    -0.191900968388E+03    0.29920E-02   -0.82982E-03 12000   0.517E-01    0.265E-01
DAV:   5    -0.191900208085E+03    0.76030E-03   -0.33788E-03 11720   0.375E-01    0.225E-01
DAV:   6    -0.191900526128E+03   -0.31804E-03   -0.34441E-03 12520   0.457E-01    0.256E-01
DAV:   7    -0.191899722112E+03    0.80402E-03   -0.15528E-03 10080   0.275E-01    0.110E-01
DAV:   8    -0.191899633045E+03    0.89067E-04   -0.32866E-04  8640   0.132E-01
  13 F= -.19189963E+03 E0= -.19180615E+03  d E =-.579960E-01
       N       E                     dE             d eps       ncg     rms          rms(c)
DAV:   1    -0.191916991338E+03   -0.17269E-01   -0.46341E-01  8160   0.148E+00    0.204E-01
DAV:   2    -0.191919736951E+03   -0.27456E-02   -0.20365E-02 11200   0.609E-01    0.500E-01
DAV:   3    -0.191917741493E+03    0.19955E-02   -0.71781E-03 11760   0.568E-01    0.202E-01
DAV:   4    -0.191917315549E+03    0.42594E-03   -0.11308E-03 10040   0.180E-01    0.788E-02
DAV:   5    -0.191917238740E+03    0.76809E-04   -0.41829E-04  9560   0.872E-02
  14 F= -.19191724E+03 E0= -.19182406E+03  d E =-.176057E-01
       N       E                     dE             d eps       ncg     rms          rms(c)
DAV:   1    -0.191973104091E+03   -0.55789E-01   -0.60847E+00  8160   0.531E+00    0.657E-01
DAV:   2    -0.192010509784E+03   -0.37406E-01   -0.23271E-01 11200   0.213E+00    0.182E+00
DAV:   3    -0.191983228598E+03    0.27281E-01   -0.81720E-02 12400   0.192E+00    0.571E-01
DAV:   4    -0.191981434045E+03    0.17946E-02   -0.12540E-02 11440   0.676E-01    0.488E-01
DAV:   5    -0.191979228200E+03    0.22058E-02   -0.84596E-03 12560   0.704E-01    0.324E-01
DAV:   6    -0.191979340252E+03   -0.11205E-03   -0.52286E-03 11640   0.508E-01    0.330E-01
DAV:   7    -0.191978652248E+03    0.68800E-03   -0.34291E-03 10920   0.457E-01    0.218E-01
DAV:   8    -0.191978028657E+03    0.62359E-03   -0.94457E-04 10000   0.223E-01    0.368E-02
DAV:   9    -0.191978021152E+03    0.75054E-05   -0.92225E-05  6720   0.391E-02
  15 F= -.19197802E+03 E0= -.19188600E+03  d E =-.607824E-01
       N       E                     dE             d eps       ncg     rms          rms(c)
DAV:   1    -0.192048528757E+03   -0.70500E-01   -0.22597E+01  8160   0.102E+01    0.122E+00
DAV:   2    -0.192191262724E+03   -0.14273E+00   -0.86972E-01 11200   0.411E+00    0.337E+00
DAV:   3    -0.192096345290E+03    0.94917E-01   -0.29071E-01 12240   0.371E+00    0.114E+00
DAV:   4    -0.192091274498E+03    0.50708E-02   -0.50374E-02 12160   0.164E+00    0.104E+00
DAV:   5    -0.192078200798E+03    0.13074E-01   -0.29690E-02 12400   0.140E+00    0.421E-01
DAV:   6    -0.192077769423E+03    0.43137E-03   -0.10744E-02 11840   0.584E-01    0.367E-01
DAV:   7    -0.192078011622E+03   -0.24220E-03   -0.82404E-03 12000   0.677E-01    0.480E-01
DAV:   8    -0.192075583760E+03    0.24279E-02   -0.35901E-03 11520   0.477E-01    0.720E-02
DAV:   9    -0.192075536626E+03    0.47134E-04   -0.32654E-04  8880   0.739E-02
  16 F= -.19207554E+03 E0= -.19198562E+03  d E =-.975155E-01
       N       E                     dE             d eps       ncg     rms          rms(c)
DAV:   1    -0.192100748341E+03   -0.25165E-01   -0.30015E+00  8160   0.373E+00    0.499E-01
DAV:   2    -0.192121550200E+03   -0.20802E-01   -0.14099E-01 11240   0.159E+00    0.129E+00
DAV:   3    -0.192107986058E+03    0.13564E-01   -0.42333E-02 12240   0.148E+00    0.474E-01
DAV:   4    -0.192105766446E+03    0.22196E-02   -0.63792E-03 11040   0.464E-01    0.269E-01
DAV:   5    -0.192105145364E+03    0.62108E-03   -0.35636E-03 12800   0.456E-01    0.214E-01
DAV:   6    -0.192104895458E+03    0.24991E-03   -0.21342E-03 11880   0.333E-01    0.149E-01
DAV:   7    -0.192104735413E+03    0.16004E-03   -0.11763E-03 10800   0.226E-01    0.133E-01
DAV:   8    -0.192104568022E+03    0.16739E-03   -0.38530E-04  8920   0.161E-01    0.501E-02
DAV:   9    -0.192104537350E+03    0.30671E-04   -0.54183E-05  6480   0.493E-02
  17 F= -.19210454E+03 E0= -.19201532E+03  d E =-.290007E-01
       N       E                     dE             d eps       ncg     rms          rms(c)
DAV:   1    -0.192128546280E+03   -0.23978E-01   -0.59403E+00  8160   0.518E+00    0.626E-01
DAV:   2    -0.192166393232E+03   -0.37847E-01   -0.23022E-01 11000   0.219E+00    0.160E+00
DAV:   3    -0.192141407771E+03    0.24985E-01   -0.63441E-02 12240   0.194E+00    0.587E-01
DAV:   4    -0.192140721524E+03    0.68625E-03   -0.12939E-02 11720   0.865E-01    0.550E-01
DAV:   5    -0.192137216493E+03    0.35050E-02   -0.71517E-03 12480   0.689E-01    0.198E-01
DAV:   6    -0.192137120645E+03    0.95849E-04   -0.25755E-03 11880   0.241E-01    0.136E-01
DAV:   7    -0.192136821786E+03    0.29886E-03   -0.11530E-03 10440   0.156E-01    0.878E-02
DAV:   8    -0.192136770744E+03    0.51042E-04   -0.29415E-04  9440   0.132E-01
  18 F= -.19213677E+03 E0= -.19204887E+03  d E =-.322334E-01
       N       E                     dE             d eps       ncg     rms          rms(c)
DAV:   1    -0.192146404823E+03   -0.95830E-02   -0.55472E-01  8160   0.161E+00    0.189E-01
DAV:   2    -0.192148095154E+03   -0.16903E-02   -0.18706E-02 11280   0.468E-01    0.288E-01
DAV:   3    -0.192147808857E+03    0.28630E-03   -0.36790E-03 12280   0.481E-01    0.250E-01
DAV:   4    -0.192147244210E+03    0.56465E-03   -0.10063E-03  9880   0.252E-01    0.111E-01
DAV:   5    -0.192147193837E+03    0.50372E-04   -0.55265E-04  8840   0.195E-01
  19 F= -.19214719E+03 E0= -.19206023E+03  d E =-.104231E-01
       N       E                     dE             d eps       ncg     rms          rms(c)
DAV:   1    -0.192153599635E+03   -0.63554E-02   -0.23184E-01  8160   0.104E+00    0.140E-01
DAV:   2    -0.192155157243E+03   -0.15576E-02   -0.85298E-03 11280   0.436E-01    0.344E-01
DAV:   3    -0.192153920939E+03    0.12363E-02   -0.25404E-03 12160   0.412E-01    0.113E-01
DAV:   4    -0.192153938627E+03   -0.17687E-04   -0.43711E-04  8600   0.172E-01
  20 F= -.19215394E+03 E0= -.19206670E+03  d E =-.674479E-02
       N       E                     dE             d eps       ncg     rms          rms(c)
DAV:   1    -0.192163042042E+03   -0.91211E-02   -0.45410E-01  8160   0.146E+00    0.183E-01
DAV:   2    -0.192164094867E+03   -0.10528E-02   -0.13075E-02 11560   0.431E-01    0.254E-01
DAV:   3    -0.192163893643E+03    0.20122E-03   -0.27758E-03 12240   0.430E-01    0.228E-01
DAV:   4    -0.192163505798E+03    0.38784E-03   -0.98089E-04  9920   0.259E-01    0.133E-01
DAV:   5    -0.192163380478E+03    0.12532E-03   -0.61580E-04  9200   0.212E-01    0.912E-02
DAV:   6    -0.192163353040E+03    0.27437E-04   -0.35248E-04  9320   0.128E-01
  21 F= -.19216335E+03 E0= -.19207664E+03  d E =-.941441E-02
       N       E                     dE             d eps       ncg     rms          rms(c)
DAV:   1    -0.192179463848E+03   -0.16083E-01   -0.14606E+00  8160   0.261E+00    0.311E-01
DAV:   2    -0.192184173087E+03   -0.47092E-02   -0.45395E-02 11200   0.812E-01    0.504E-01
DAV:   3    -0.192182075419E+03    0.20977E-02   -0.93009E-03 12040   0.785E-01    0.320E-01
DAV:   4    -0.192181716478E+03    0.35894E-03   -0.25584E-03 11480   0.435E-01    0.282E-01
DAV:   5    -0.192180915021E+03    0.80146E-03   -0.16967E-03 10160   0.365E-01    0.112E-01
DAV:   6    -0.192180911839E+03    0.31827E-05   -0.62272E-04 10440   0.138E-01
  22 F= -.19218091E+03 E0= -.19209444E+03  d E =-.175588E-01
       N       E                     dE             d eps       ncg     rms          rms(c)
DAV:   1    -0.192180876905E+03    0.38117E-04   -0.32822E-04  9960   0.142E-01    0.823E-02
DAV:   2    -0.192182589361E+03   -0.17125E-02   -0.27435E-03 11160   0.461E-01    0.403E-01
DAV:   3    -0.192180779977E+03    0.18094E-02   -0.19146E-03 10160   0.384E-01    0.212E-02
DAV:   4    -0.192180804069E+03   -0.24092E-04   -0.30104E-05  6000   0.329E-02
  23 F= -.19218080E+03 E0= -.19209452E+03  d E =0.107769E-03
       N       E                     dE             d eps       ncg     rms          rms(c)
DAV:   1    -0.192181672267E+03   -0.89229E-03   -0.56523E-02  8160   0.510E-01    0.749E-02
DAV:   2    -0.192182367517E+03   -0.69525E-03   -0.26849E-03 12440   0.305E-01    0.244E-01
DAV:   3    -0.192181732995E+03    0.63452E-03   -0.96838E-04  9680   0.262E-01    0.569E-02
DAV:   4    -0.192181713518E+03    0.19477E-04   -0.10154E-04  6080   0.681E-02
  24 F= -.19218171E+03 E0= -.19209546E+03  d E =-.909448E-03
       N       E                     dE             d eps       ncg     rms          rms(c)
DAV:   1    -0.192193393910E+03   -0.11661E-01   -0.68093E-01  8160   0.178E+00    0.221E-01
DAV:   2    -0.192195909993E+03   -0.25161E-02   -0.22206E-02 10880   0.618E-01    0.402E-01
DAV:   3    -0.192194554050E+03    0.13559E-02   -0.50417E-03 12600   0.568E-01    0.220E-01
DAV:   4    -0.192194314210E+03    0.23984E-03   -0.13029E-03  9800   0.291E-01    0.171E-01
DAV:   5    -0.192194008035E+03    0.30618E-03   -0.73692E-04  9960   0.248E-01    0.812E-02
DAV:   6    -0.192194010637E+03   -0.26026E-05   -0.27324E-04  8880   0.112E-01
  25 F= -.19219401E+03 E0= -.19210786E+03  d E =-.122971E-01
       N       E                     dE             d eps       ncg     rms          rms(c)
DAV:   1    -0.192192975962E+03    0.10321E-02   -0.46296E-03 10120   0.174E-01    0.474E-02
DAV:   2    -0.192193490824E+03   -0.51486E-03   -0.88118E-04 11120   0.250E-01    0.218E-01
DAV:   3    -0.192192950823E+03    0.54000E-03   -0.52954E-04  8840   0.212E-01    0.160E-02
DAV:   4    -0.192192959252E+03   -0.84289E-05   -0.21138E-05  5880   0.202E-02
  26 F= -.19219296E+03 E0= -.19210675E+03  d E =0.105139E-02
       N       E                     dE             d eps       ncg     rms          rms(c)
DAV:   1    -0.192190408522E+03    0.25423E-02   -0.94563E-02  8160   0.660E-01    0.118E-01
DAV:   2    -0.192192362500E+03   -0.19540E-02   -0.66462E-03 11800   0.531E-01    0.418E-01
DAV:   3    -0.192190487969E+03    0.18745E-02   -0.23964E-03 11080   0.426E-01    0.652E-02
DAV:   4    -0.192190484316E+03    0.36527E-05   -0.22797E-04  8720   0.112E-01
  27 F= -.19219048E+03 E0= -.19210441E+03  d E =0.247494E-02
       N       E                     dE             d eps       ncg     rms          rms(c)
DAV:   1    -0.192178773428E+03    0.11715E-01   -0.99729E-01  8160   0.215E+00    0.366E-01
DAV:   2    -0.192194870265E+03   -0.16097E-01   -0.58266E-02 12240   0.149E+00    0.121E+00
DAV:   3    -0.192179621557E+03    0.15249E-01   -0.21913E-02 12400   0.128E+00    0.221E-01
DAV:   4    -0.192179171194E+03    0.45036E-03   -0.23260E-03 10560   0.249E-01    0.160E-01
DAV:   5    -0.192178818309E+03    0.35289E-03   -0.13705E-03 11680   0.208E-01    0.138E-01
DAV:   6    -0.192178877208E+03   -0.58899E-04   -0.11019E-03 10520   0.265E-01    0.156E-01
DAV:   7    -0.192178642765E+03    0.23444E-03   -0.56504E-04  8560   0.180E-01    0.672E-02
DAV:   8    -0.192178601684E+03    0.41081E-04   -0.11738E-04  6320   0.968E-02
  28 F= -.19217860E+03 E0= -.19209272E+03  d E =0.118826E-01
       N       E                     dE             d eps       ncg     rms          rms(c)
DAV:   1    -0.192203777805E+03   -0.25135E-01   -0.35259E+00  8160   0.405E+00    0.598E-01
DAV:   2    -0.192243621862E+03   -0.39844E-01   -0.17632E-01 12120   0.236E+00    0.174E+00
DAV:   3    -0.192208695886E+03    0.34926E-01   -0.49224E-02 12000   0.191E+00    0.388E-01
DAV:   4    -0.192208476115E+03    0.21977E-03   -0.72638E-03 11280   0.660E-01    0.413E-01
DAV:   5    -0.192206579257E+03    0.18969E-02   -0.52161E-03 12760   0.598E-01    0.228E-01
DAV:   6    -0.192206473022E+03    0.10623E-03   -0.27048E-03 12000   0.354E-01    0.218E-01
DAV:   7    -0.192206356864E+03    0.11616E-03   -0.17935E-03 11160   0.357E-01    0.203E-01
DAV:   8    -0.192205851581E+03    0.50528E-03   -0.69939E-04  9080   0.208E-01    0.288E-02
DAV:   9    -0.192205852482E+03   -0.90119E-06   -0.61486E-05  6440   0.321E-02
  29 F= -.19220585E+03 E0= -.19211936E+03  d E =-.272508E-01
       N       E                     dE             d eps       ncg     rms          rms(c)
DAV:   1    -0.192218977009E+03   -0.13125E-01   -0.86689E-01  8160   0.200E+00    0.245E-01
DAV:   2    -0.192221942440E+03   -0.29654E-02   -0.26240E-02 11280   0.664E-01    0.431E-01
DAV:   3    -0.192220114255E+03    0.18282E-02   -0.67458E-03 12400   0.630E-01    0.227E-01
DAV:   4    -0.192220088365E+03    0.25890E-04   -0.17210E-03 10400   0.340E-01    0.228E-01
DAV:   5    -0.192219537978E+03    0.55039E-03   -0.10519E-03  9960   0.299E-01    0.908E-02
DAV:   6    -0.192219515419E+03    0.22559E-04   -0.39366E-04  9200   0.113E-01
  30 F= -.19221952E+03 E0= -.19213240E+03  d E =-.136629E-01
       N       E                     dE             d eps       ncg     rms          rms(c)
DAV:   1    -0.192224010214E+03   -0.44722E-02   -0.99808E-02  8160   0.683E-01    0.970E-02
DAV:   2    -0.192224817484E+03   -0.80727E-03   -0.39402E-03 10680   0.336E-01    0.254E-01
DAV:   3    -0.192224101790E+03    0.71569E-03   -0.13166E-03 10960   0.295E-01    0.695E-02
DAV:   4    -0.192224148605E+03   -0.46815E-04   -0.22684E-04  8280   0.128E-01
  31 F= -.19222415E+03 E0= -.19213684E+03  d E =-.463319E-02
       N       E                     dE             d eps       ncg     rms          rms(c)
DAV:   1    -0.192229568486E+03   -0.54667E-02   -0.14829E-01  8160   0.838E-01    0.118E-01
DAV:   2    -0.192230187389E+03   -0.61890E-03   -0.54618E-03 11280   0.318E-01    0.218E-01
DAV:   3    -0.192229773212E+03    0.41418E-03   -0.15540E-03 11080   0.302E-01    0.112E-01
DAV:   4    -0.192229729718E+03    0.43493E-04   -0.36047E-04  8440   0.156E-01
  32 F= -.19222973E+03 E0= -.19214229E+03  d E =-.558111E-02
       N       E                     dE             d eps       ncg     rms          rms(c)
DAV:   1    -0.192241686909E+03   -0.11914E-01   -0.95351E-01  8160   0.212E+00    0.303E-01
DAV:   2    -0.192245605904E+03   -0.39190E-02   -0.38943E-02 11040   0.820E-01    0.535E-01
DAV:   3    -0.192243176167E+03    0.24297E-02   -0.91054E-03 12360   0.759E-01    0.288E-01
DAV:   4    -0.192242627672E+03    0.54850E-03   -0.25423E-03 11200   0.400E-01    0.215E-01
DAV:   5    -0.192242242238E+03    0.38543E-03   -0.14079E-03 10200   0.343E-01    0.132E-01
DAV:   6    -0.192242096839E+03    0.14540E-03   -0.67462E-04 10680   0.178E-01    0.718E-02
DAV:   7    -0.192242093951E+03    0.28883E-05   -0.28925E-04  9640   0.137E-01
  33 F= -.19224209E+03 E0= -.19215470E+03  d E =-.123642E-01
       N       E                     dE             d eps       ncg     rms          rms(c)
DAV:   1    -0.192234049085E+03    0.80478E-02   -0.78068E-01  8160   0.193E+00    0.309E-01
DAV:   2    -0.192238617496E+03   -0.45684E-02   -0.36764E-02 12640   0.866E-01    0.616E-01
DAV:   3    -0.192234854882E+03    0.37626E-02   -0.10179E-02 12400   0.865E-01    0.303E-01
DAV:   4    -0.192234187740E+03    0.66714E-03   -0.29041E-03 11320   0.394E-01    0.205E-01
DAV:   5    -0.192233790033E+03    0.39771E-03   -0.17409E-03 10800   0.342E-01    0.153E-01
DAV:   6    -0.192233559649E+03    0.23038E-03   -0.87798E-04 10320   0.212E-01    0.731E-02
DAV:   7    -0.192233502177E+03    0.57471E-04   -0.27908E-04  8560   0.994E-02
  34 F= -.19223350E+03 E0= -.19214765E+03  d E =0.859177E-02
       N       E                     dE             d eps       ncg     rms          rms(c)
DAV:   1    -0.192251328541E+03   -0.17769E-01   -0.22338E+00  8160   0.332E+00    0.569E-01
DAV:   2    -0.192260221784E+03   -0.88932E-02   -0.10174E-01 12480   0.139E+00    0.100E+00
DAV:   3    -0.192251791871E+03    0.84299E-02   -0.31770E-02 12280   0.150E+00    0.620E-01
DAV:   4    -0.192248102094E+03    0.36898E-02   -0.10403E-02 12240   0.746E-01    0.332E-01
DAV:   5    -0.192247053311E+03    0.10488E-02   -0.64328E-03 12080   0.601E-01    0.289E-01
DAV:   6    -0.192246200069E+03    0.85324E-03   -0.29764E-03 11360   0.425E-01    0.134E-01
DAV:   7    -0.192245931563E+03    0.26851E-03   -0.90544E-04 10240   0.168E-01    0.621E-02
DAV:   8    -0.192245939137E+03   -0.75732E-05   -0.21787E-04  7720   0.120E-01
  35 F= -.19224594E+03 E0= -.19215717E+03  d E =-.124370E-01
       N       E                     dE             d eps       ncg     rms          rms(c)
DAV:   1    -0.192256310230E+03   -0.10379E-01   -0.65374E-01  8160   0.173E+00    0.232E-01
DAV:   2    -0.192259766546E+03   -0.34563E-02   -0.24989E-02 10800   0.770E-01    0.498E-01
DAV:   3    -0.192257097931E+03    0.26686E-02   -0.74441E-03 12280   0.650E-01    0.185E-01
DAV:   4    -0.192257194543E+03   -0.96612E-04   -0.15189E-03  9960   0.323E-01    0.213E-01
DAV:   5    -0.192256694262E+03    0.50028E-03   -0.89783E-04  9920   0.277E-01    0.804E-02
DAV:   6    -0.192256658147E+03    0.36115E-04   -0.34613E-04  8440   0.104E-01
  36 F= -.19225666E+03 E0= -.19216734E+03  d E =-.107190E-01
       N       E                     dE             d eps       ncg     rms          rms(c)
DAV:   1    -0.192268568077E+03   -0.11874E-01   -0.10618E+00  8160   0.220E+00    0.268E-01
DAV:   2    -0.192272081498E+03   -0.35134E-02   -0.34742E-02 11160   0.680E-01    0.431E-01
DAV:   3    -0.192270406879E+03    0.16746E-02   -0.85761E-03 12360   0.679E-01    0.267E-01
DAV:   4    -0.192270154179E+03    0.25270E-03   -0.20950E-03 11080   0.366E-01    0.228E-01
DAV:   5    -0.192269617519E+03    0.53666E-03   -0.11123E-03  9800   0.311E-01    0.104E-01
DAV:   6    -0.192269589980E+03    0.27539E-04   -0.54784E-04  9840   0.130E-01
  37 F= -.19226959E+03 E0= -.19217964E+03  d E =-.129318E-01
       N       E                     dE             d eps       ncg     rms          rms(c)
DAV:   1    -0.192290357362E+03   -0.20740E-01   -0.58403E+00  8160   0.515E+00    0.618E-01
DAV:   2    -0.192312456253E+03   -0.22099E-01   -0.19304E-01 11040   0.184E+00    0.112E+00
DAV:   3    -0.192299143576E+03    0.13313E-01   -0.51388E-02 12360   0.162E+00    0.544E-01
DAV:   4    -0.192298834792E+03    0.30878E-03   -0.11437E-02 12480   0.845E-01    0.546E-01
DAV:   5    -0.192295717107E+03    0.31177E-02   -0.65090E-03 10200   0.737E-01    0.237E-01
DAV:   6    -0.192295413422E+03    0.30369E-03   -0.28984E-03 11640   0.301E-01    0.143E-01
DAV:   7    -0.192295041681E+03    0.37174E-03   -0.10473E-03 10640   0.162E-01    0.794E-02
DAV:   8    -0.192294996263E+03    0.45418E-04   -0.20393E-04  9240   0.122E-01
  38 F= -.19229500E+03 E0= -.19220436E+03  d E =-.254063E-01
       N       E                     dE             d eps       ncg     rms          rms(c)
DAV:   1    -0.192305841336E+03   -0.10800E-01   -0.85247E+00  8160   0.622E+00    0.708E-01
DAV:   2    -0.192330103630E+03   -0.24262E-01   -0.26985E-01 11080   0.174E+00    0.100E+00
DAV:   3    -0.192323072048E+03    0.70316E-02   -0.60718E-02 12360   0.174E+00    0.767E-01
DAV:   4    -0.192318896468E+03    0.41756E-02   -0.16629E-02 12560   0.989E-01    0.524E-01
DAV:   5    -0.192316302343E+03    0.25941E-02   -0.75995E-03 10720   0.780E-01    0.301E-01
DAV:   6    -0.192315767989E+03    0.53435E-03   -0.40918E-03 12200   0.403E-01    0.175E-01
DAV:   7    -0.192315195304E+03    0.57268E-03   -0.14936E-03 10600   0.195E-01    0.762E-02
DAV:   8    -0.192315168404E+03    0.26901E-04   -0.26742E-04  9720   0.134E-01
  39 F= -.19231517E+03 E0= -.19222565E+03  d E =-.201721E-01
       N       E                     dE             d eps       ncg     rms          rms(c)
DAV:   1    -0.192314639558E+03    0.55575E-03   -0.43477E-01  8160   0.143E+00    0.181E-01
DAV:   2    -0.192316466750E+03   -0.18272E-02   -0.12745E-02 11520   0.543E-01    0.383E-01
DAV:   3    -0.192314866804E+03    0.15999E-02   -0.46053E-03 12360   0.521E-01    0.148E-01
DAV:   4    -0.192314868289E+03   -0.14846E-05   -0.85744E-04  9960   0.232E-01
  40 F= -.19231487E+03 E0= -.19222577E+03  d E =0.300115E-03
       N       E                     dE             d eps       ncg     rms          rms(c)
DAV:   1    -0.192315987189E+03   -0.11204E-02   -0.57638E-02  8160   0.535E-01    0.869E-02
DAV:   2    -0.192316360610E+03   -0.37342E-03   -0.25468E-03 11760   0.278E-01    0.177E-01
DAV:   3    -0.192315979362E+03    0.38125E-03   -0.70541E-04  9920   0.240E-01    0.568E-02
DAV:   4    -0.192315985467E+03   -0.61052E-05   -0.15776E-04  6640   0.104E-01
  41 F= -.19231599E+03 E0= -.19222727E+03  d E =-.111718E-02
       N       E                     dE             d eps       ncg     rms          rms(c)
DAV:   1    -0.192318343860E+03   -0.23645E-02   -0.15816E-01  8160   0.849E-01    0.955E-02
DAV:   2    -0.192318694545E+03   -0.35068E-03   -0.48020E-03 12240   0.206E-01    0.979E-02
DAV:   3    -0.192318726470E+03   -0.31925E-04   -0.73364E-04 11200   0.211E-01
  42 F= -.19231873E+03 E0= -.19223060E+03  d E =-.274100E-02
       N       E                     dE             d eps       ncg     rms          rms(c)
DAV:   1    -0.192320025197E+03   -0.13307E-02   -0.62082E-02  8160   0.546E-01    0.854E-02
DAV:   2    -0.192320189852E+03   -0.16466E-03   -0.22141E-03 12080   0.143E-01    0.876E-02
DAV:   3    -0.192320044081E+03    0.14577E-03   -0.49401E-04 11080   0.109E-01    0.539E-02
DAV:   4    -0.192320069659E+03   -0.25578E-04   -0.16673E-04  7600   0.116E-01
  43 F= -.19232007E+03 E0= -.19223215E+03  d E =-.134319E-02
       N       E                     dE             d eps       ncg     rms          rms(c)
DAV:   1    -0.192321245006E+03   -0.12009E-02   -0.42090E-02  8200   0.447E-01    0.762E-02
DAV:   2    -0.192321409362E+03   -0.16436E-03   -0.17122E-03 11840   0.195E-01    0.137E-01
DAV:   3    -0.192321245027E+03    0.16434E-03   -0.57161E-04  9080   0.202E-01    0.786E-02
DAV:   4    -0.192321168961E+03    0.76066E-04   -0.12579E-04  6600   0.845E-02
  44 F= -.19232117E+03 E0= -.19223337E+03  d E =-.109930E-02
       N       E                     dE             d eps       ncg     rms          rms(c)
DAV:   1    -0.192323946358E+03   -0.27013E-02   -0.27533E-01  8160   0.112E+00    0.135E-01
DAV:   2    -0.192325238238E+03   -0.12919E-02   -0.10057E-02 12520   0.410E-01    0.272E-01
DAV:   3    -0.192324477020E+03    0.76122E-03   -0.24351E-03 11760   0.384E-01    0.120E-01
DAV:   4    -0.192324396399E+03    0.80621E-04   -0.39621E-04  8760   0.153E-01
  45 F= -.19232440E+03 E0= -.19223742E+03  d E =-.322744E-02
       N       E                     dE             d eps       ncg     rms          rms(c)
DAV:   1    -0.192326858808E+03   -0.23818E-02   -0.24608E-01  8160   0.106E+00    0.136E-01
DAV:   2    -0.192327580596E+03   -0.72179E-03   -0.77830E-03 13240   0.312E-01    0.199E-01
DAV:   3    -0.192327342138E+03    0.23846E-03   -0.18686E-03 11560   0.338E-01    0.163E-01
DAV:   4    -0.192327116251E+03    0.22589E-03   -0.53458E-04  8720   0.177E-01    0.688E-02
DAV:   5    -0.192327059671E+03    0.56580E-04   -0.24237E-04  8000   0.892E-02
  46 F= -.19232706E+03 E0= -.19224091E+03  d E =-.266327E-02
       N       E                     dE             d eps       ncg     rms          rms(c)
DAV:   1    -0.192330933785E+03   -0.38175E-02   -0.18406E+00  8160   0.289E+00    0.318E-01
DAV:   2    -0.192335418804E+03   -0.44850E-02   -0.57491E-02 11840   0.771E-01    0.360E-01
DAV:   3    -0.192335637256E+03   -0.21845E-03   -0.77008E-03 12360   0.756E-01    0.408E-01
DAV:   4    -0.192333842030E+03    0.17952E-02   -0.24631E-03 12440   0.455E-01    0.143E-01
DAV:   5    -0.192333794790E+03    0.47240E-04   -0.12137E-03 10480   0.263E-01    0.143E-01
DAV:   6    -0.192333749355E+03    0.45435E-04   -0.91814E-04 10680   0.251E-01
  47 F= -.19233375E+03 E0= -.19225020E+03  d E =-.668968E-02
       N       E                     dE             d eps       ncg     rms          rms(c)
DAV:   1    -0.192335693477E+03   -0.18987E-02   -0.85980E-01  8160   0.198E+00    0.219E-01
DAV:   2    -0.192337716357E+03   -0.20229E-02   -0.28274E-02 12080   0.483E-01    0.213E-01
DAV:   3    -0.192338201304E+03   -0.48495E-03   -0.43347E-03 11840   0.495E-01    0.314E-01
DAV:   4    -0.192337172776E+03    0.10285E-02   -0.17299E-03 11120   0.343E-01    0.105E-01
DAV:   5    -0.192337122044E+03    0.50732E-04   -0.57263E-04  9360   0.178E-01
  48 F= -.19233712E+03 E0= -.19225590E+03  d E =-.337269E-02
       N       E                     dE             d eps       ncg     rms          rms(c)
DAV:   1    -0.192336340148E+03    0.83263E-03   -0.65157E-02  8240   0.557E-01    0.948E-02
DAV:   2    -0.192337391055E+03   -0.10509E-02   -0.43003E-03 11440   0.389E-01    0.269E-01
DAV:   3    -0.192336438739E+03    0.95232E-03   -0.14057E-03 10280   0.331E-01    0.674E-02
DAV:   4    -0.192336415104E+03    0.23636E-04   -0.21774E-04  7280   0.105E-01
  49 F= -.19233642E+03 E0= -.19225472E+03  d E =0.706940E-03
       N       E                     dE             d eps       ncg     rms          rms(c)
DAV:   1    -0.192336696219E+03   -0.25748E-03   -0.13628E-02  8320   0.265E-01    0.432E-02
DAV:   2    -0.192336758936E+03   -0.62717E-04   -0.63544E-04 12240   0.106E-01
  50 F= -.19233676E+03 E0= -.19225531E+03  d E =-.343832E-03
