   27   27  100    1
  0.9710400E+02  0.1002848E-08  0.1002848E-08  0.3000000E-08  0.5000000E-15
  1.000000000000000E-004
  CAR 
 unknown system                          
    159     34    120
 
  0.0000000E+00  0.0000000E+00  0.0000000E+00  0.1562500E-01
    1      -17.824646   1.000000
    2      -16.763082   1.000000
    3      -16.637829   1.000000
    4      -16.619076   1.000000
    5      -16.581811   1.000000
    6      -16.486358   1.000000
    7      -16.419021   1.000000
    8      -16.236410   1.000000
    9      -16.132339   1.000000
   10      -16.118227   1.000000
   11      -16.096671   1.000000
   12      -15.950749   1.000000
   13      -15.880082   1.000000
   14      -15.769614   1.000000
   15      -15.605178   1.000000
   16      -15.405314   1.000000
   17      -15.386787   1.000000
   18      -15.183074   1.000000
   19       -9.348477   1.000000
   20       -9.026144   1.000000
   21       -8.972355   1.000000
   22       -8.918538   1.000000
   23       -8.745867   1.000000
   24       -8.666425   1.000000
   25       -8.601301   1.000000
   26       -8.589290   1.000000
   27       -8.530659   1.000000
   28       -8.502755   1.000000
   29       -8.464950   1.000000
   30       -8.439736   1.000000
   31       -8.339209   1.000000
   32       -8.125775   1.000000
   33       -8.074933   1.000000
   34       -7.995509   1.000000
   35       -7.805863   1.000000
   36       -7.759071   1.000000
   37       -7.693482   1.000000
   38       -7.589266   1.000000
   39       -7.488369   1.000000
   40       -7.409303   1.000000
   41       -7.354958   1.000000
   42       -7.219335   1.000000
   43       -7.084925   1.000000
   44       -6.879589   1.000000
   45       -6.811642   1.000000
   46       -6.789403   1.000000
   47       -6.774387   1.000000
   48       -6.646524   1.000000
   49       -6.535637   1.000000
   50       -6.498574   1.000000
   51       -6.414374   1.000000
   52       -6.352799   1.000000
   53       -6.307455   1.000000
   54       -6.249508   1.000000
   55       -6.218647   1.000000
   56       -6.159957   1.000000
   57       -6.053758   1.000000
   58       -5.978234   1.000000
   59       -5.840588   1.000000
   60       -5.534218   1.000000
   61       -5.406196   1.000000
   62       -5.318998   1.000000
   63       -5.260109   1.000000
   64       -5.215988   1.000000
   65       -5.094368   1.000000
   66       -4.997067   1.000000
   67       -4.969336   1.000000
   68       -4.835757   1.000000
   69       -4.825258   1.000000
   70       -4.695554   1.000000
   71       -4.660721   1.000000
   72       -4.628533   1.000000
   73       -4.544090   1.000000
   74       -4.371836   1.000000
   75       -4.078186   1.000000
   76       -3.987463   0.999998
   77       -3.840937   0.999801
   78       -3.576710   0.952782
   79       -3.504407   0.877219
   80       -3.450213   0.781712
   81       -3.205656   0.170728
   82       -2.955303   0.003249
   83       -2.836939   0.000186
   84       -2.704635   0.000003
   85       -2.559952   0.000000
   86       -2.408112   0.000000
   87       -2.380345   0.000000
   88       -2.309466   0.000000
   89       -2.225068   0.000000
   90       -2.170497   0.000000
   91       -1.705454   0.000000
   92       -1.530008   0.000000
   93       -1.455497   0.000000
   94       -1.268939   0.000000
   95       -1.137130   0.000000
   96       -1.047632   0.000000
   97       -0.959129   0.000000
   98       -0.906728   0.000000
   99       -0.708011   0.000000
  100       -0.669436   0.000000
  101       -0.580267   0.000000
  102       -0.525492   0.000000
  103       -0.501415   0.000000
  104       -0.347840   0.000000
  105       -0.228644   0.000000
  106       -0.169524   0.000000
  107       -0.107447   0.000000
  108       -0.028045   0.000000
  109        0.030948   0.000000
  110        0.217954   0.000000
  111        0.338943   0.000000
  112        0.642570   0.000000
  113        0.775382   0.000000
  114        0.862854   0.000000
  115        0.910741   0.000000
  116        0.957715   0.000000
  117        1.269819   0.000000
  118        1.646438   0.000000
  119        1.835233   0.000000
  120        2.153242   0.000000
 
  0.1250000E+00  0.2775558E-16  0.0000000E+00  0.3125000E-01
    1      -17.800619   1.000000
    2      -16.793457   1.000000
    3      -16.757783   1.000000
    4      -16.615455   1.000000
    5      -16.556440   1.000000
    6      -16.500970   1.000000
    7      -16.376086   1.000000
    8      -16.254440   1.000000
    9      -16.136514   1.000000
   10      -16.079813   1.000000
   11      -16.032214   1.000000
   12      -15.941642   1.000000
   13      -15.865785   1.000000
   14      -15.762061   1.000000
   15      -15.615070   1.000000
   16      -15.413021   1.000000
   17      -15.398084   1.000000
   18      -15.186136   1.000000
   19       -9.340284   1.000000
   20       -9.152504   1.000000
   21       -9.066895   1.000000
   22       -9.014497   1.000000
   23       -8.786787   1.000000
   24       -8.714384   1.000000
   25       -8.643851   1.000000
   26       -8.558487   1.000000
   27       -8.536293   1.000000
   28       -8.502103   1.000000
   29       -8.401972   1.000000
   30       -8.285146   1.000000
   31       -8.241516   1.000000
   32       -8.073020   1.000000
   33       -8.024866   1.000000
   34       -7.913626   1.000000
   35       -7.783656   1.000000
   36       -7.749590   1.000000
   37       -7.621562   1.000000
   38       -7.599633   1.000000
   39       -7.513637   1.000000
   40       -7.447964   1.000000
   41       -7.332402   1.000000
   42       -7.174843   1.000000
   43       -7.136422   1.000000
   44       -6.956371   1.000000
   45       -6.856737   1.000000
   46       -6.780848   1.000000
   47       -6.721929   1.000000
   48       -6.660093   1.000000
   49       -6.517599   1.000000
   50       -6.460651   1.000000
   51       -6.427471   1.000000
   52       -6.396484   1.000000
   53       -6.299342   1.000000
   54       -6.254186   1.000000
   55       -6.245144   1.000000
   56       -6.125832   1.000000
   57       -6.043535   1.000000
   58       -5.958989   1.000000
   59       -5.798791   1.000000
   60       -5.511719   1.000000
   61       -5.434199   1.000000
   62       -5.421335   1.000000
   63       -5.322187   1.000000
   64       -5.234559   1.000000
   65       -5.088961   1.000000
   66       -5.037646   1.000000
   67       -4.955869   1.000000
   68       -4.908505   1.000000
   69       -4.808160   1.000000
   70       -4.729981   1.000000
   71       -4.645206   1.000000
   72       -4.590094   1.000000
   73       -4.472806   1.000000
   74       -4.280691   1.000000
   75       -4.070170   1.000000
   76       -3.942688   0.999990
   77       -3.876968   0.999926
   78       -3.691054   0.993449
   79       -3.583332   0.957218
   80       -3.442685   0.765700
   81       -3.112793   0.053925
   82       -2.934432   0.002058
   83       -2.808827   0.000086
   84       -2.685346   0.000002
   85       -2.556166   0.000000
   86       -2.411224   0.000000
   87       -2.356386   0.000000
   88       -2.298461   0.000000
   89       -2.221242   0.000000
   90       -2.143752   0.000000
   91       -1.705131   0.000000
   92       -1.537165   0.000000
   93       -1.451270   0.000000
   94       -1.274055   0.000000
   95       -1.125242   0.000000
   96       -1.041125   0.000000
   97       -0.988193   0.000000
   98       -0.905320   0.000000
   99       -0.781611   0.000000
  100       -0.726831   0.000000
  101       -0.636216   0.000000
  102       -0.570564   0.000000
  103       -0.530175   0.000000
  104       -0.402695   0.000000
  105       -0.307750   0.000000
  106       -0.188376   0.000000
  107       -0.126577   0.000000
  108       -0.023315   0.000000
  109        0.143916   0.000000
  110        0.175789   0.000000
  111        0.395849   0.000000
  112        0.549206   0.000000
  113        0.713499   0.000000
  114        0.902042   0.000000
  115        0.949344   0.000000
  116        1.005642   0.000000
  117        1.317695   0.000000
  118        1.689327   0.000000
  119        1.875449   0.000000
  120        2.188123   0.000000
 
  0.2500000E+00  0.5551115E-16  0.0000000E+00  0.3125000E-01
    1      -17.730564   1.000000
    2      -16.995380   1.000000
    3      -16.750244   1.000000
    4      -16.668012   1.000000
    5      -16.610576   1.000000
    6      -16.463800   1.000000
    7      -16.352126   1.000000
    8      -16.204470   1.000000
    9      -16.136460   1.000000
   10      -16.017376   1.000000
   11      -15.995997   1.000000
   12      -15.895909   1.000000
   13      -15.799265   1.000000
   14      -15.755583   1.000000
   15      -15.630392   1.000000
   16      -15.444905   1.000000
   17      -15.413425   1.000000
   18      -15.195095   1.000000
   19       -9.492317   1.000000
   20       -9.268896   1.000000
   21       -9.179842   1.000000
   22       -9.110098   1.000000
   23       -8.900217   1.000000
   24       -8.780840   1.000000
   25       -8.589822   1.000000
   26       -8.552084   1.000000
   27       -8.508396   1.000000
   28       -8.424181   1.000000
   29       -8.309724   1.000000
   30       -8.234012   1.000000
   31       -8.116066   1.000000
   32       -8.064710   1.000000
   33       -7.905205   1.000000
   34       -7.875557   1.000000
   35       -7.719655   1.000000
   36       -7.650373   1.000000
   37       -7.590037   1.000000
   38       -7.558468   1.000000
   39       -7.456831   1.000000
   40       -7.385650   1.000000
   41       -7.317673   1.000000
   42       -7.200880   1.000000
   43       -7.110557   1.000000
   44       -7.004344   1.000000
   45       -6.872422   1.000000
   46       -6.768391   1.000000
   47       -6.727206   1.000000
   48       -6.662027   1.000000
   49       -6.570481   1.000000
   50       -6.476381   1.000000
   51       -6.419213   1.000000
   52       -6.373183   1.000000
   53       -6.317023   1.000000
   54       -6.257737   1.000000
   55       -6.177078   1.000000
   56       -6.115569   1.000000
   57       -5.975933   1.000000
   58       -5.920736   1.000000
   59       -5.755270   1.000000
   60       -5.661895   1.000000
   61       -5.612432   1.000000
   62       -5.500674   1.000000
   63       -5.418012   1.000000
   64       -5.301864   1.000000
   65       -5.183249   1.000000
   66       -5.020147   1.000000
   67       -4.942226   1.000000
   68       -4.902137   1.000000
   69       -4.796616   1.000000
   70       -4.759126   1.000000
   71       -4.589836   1.000000
   72       -4.485474   1.000000
   73       -4.352402   1.000000
   74       -4.268358   1.000000
   75       -4.116834   1.000000
   76       -3.966187   0.999995
   77       -3.884663   0.999941
   78       -3.785167   0.999174
   79       -3.637472   0.982228
   80       -3.420177   0.714167
   81       -3.019224   0.011617
   82       -2.893220   0.000787
   83       -2.755030   0.000018
   84       -2.623948   0.000000
   85       -2.547301   0.000000
   86       -2.424198   0.000000
   87       -2.317187   0.000000
   88       -2.256635   0.000000
   89       -2.187808   0.000000
   90       -2.075136   0.000000
   91       -1.697633   0.000000
   92       -1.559105   0.000000
   93       -1.451971   0.000000
   94       -1.283149   0.000000
   95       -1.118712   0.000000
   96       -1.092363   0.000000
   97       -1.020340   0.000000
   98       -0.950252   0.000000
   99       -0.908303   0.000000
  100       -0.857014   0.000000
  101       -0.749681   0.000000
  102       -0.664694   0.000000
  103       -0.557221   0.000000
  104       -0.468391   0.000000
  105       -0.423650   0.000000
  106       -0.251225   0.000000
  107       -0.155006   0.000000
  108       -0.067622   0.000000
  109        0.095915   0.000000
  110        0.229659   0.000000
  111        0.408025   0.000000
  112        0.541862   0.000000
  113        0.610314   0.000000
  114        0.946853   0.000000
  115        1.003936   0.000000
  116        1.117829   0.000000
  117        1.427114   0.000000
  118        1.809596   0.000000
  119        1.990037   0.000000
  120        2.291617   0.000000
 
  0.3750000E+00  0.0000000E+00  0.0000000E+00  0.3125000E-01
    1      -17.624358   1.000000
    2      -17.194342   1.000000
    3      -16.739411   1.000000
    4      -16.708130   1.000000
    5      -16.654618   1.000000
    6      -16.454044   1.000000
    7      -16.344062   1.000000
    8      -16.169392   1.000000
    9      -16.088899   1.000000
   10      -16.002043   1.000000
   11      -15.940071   1.000000
   12      -15.872129   1.000000
   13      -15.783235   1.000000
   14      -15.722835   1.000000
   15      -15.630959   1.000000
   16      -15.468711   1.000000
   17      -15.429186   1.000000
   18      -15.206509   1.000000
   19       -9.698665   1.000000
   20       -9.345241   1.000000
   21       -9.223348   1.000000
   22       -9.104859   1.000000
   23       -8.988229   1.000000
   24       -8.818567   1.000000
   25       -8.557465   1.000000
   26       -8.508549   1.000000
   27       -8.434920   1.000000
   28       -8.339041   1.000000
   29       -8.290630   1.000000
   30       -8.225869   1.000000
   31       -8.142886   1.000000
   32       -8.046777   1.000000
   33       -7.935187   1.000000
   34       -7.827851   1.000000
   35       -7.776425   1.000000
   36       -7.657952   1.000000
   37       -7.579001   1.000000
   38       -7.459522   1.000000
   39       -7.358589   1.000000
   40       -7.277621   1.000000
   41       -7.203952   1.000000
   42       -7.141278   1.000000
   43       -7.049765   1.000000
   44       -6.960112   1.000000
   45       -6.841519   1.000000
   46       -6.819498   1.000000
   47       -6.718154   1.000000
   48       -6.669085   1.000000
   49       -6.551974   1.000000
   50       -6.472424   1.000000
   51       -6.410950   1.000000
   52       -6.382690   1.000000
   53       -6.321325   1.000000
   54       -6.209005   1.000000
   55       -6.116137   1.000000
   56       -6.056992   1.000000
   57       -5.968145   1.000000
   58       -5.915684   1.000000
   59       -5.870279   1.000000
   60       -5.805839   1.000000
   61       -5.761818   1.000000
   62       -5.583050   1.000000
   63       -5.534397   1.000000
   64       -5.342388   1.000000
   65       -5.195822   1.000000
   66       -5.016624   1.000000
   67       -4.931616   1.000000
   68       -4.876660   1.000000
   69       -4.800610   1.000000
   70       -4.749523   1.000000
   71       -4.611161   1.000000
   72       -4.530851   1.000000
   73       -4.402072   1.000000
   74       -4.188749   1.000000
   75       -4.080842   1.000000
   76       -4.026563   0.999999
   77       -3.888647   0.999947
   78       -3.724001   0.996676
   79       -3.593075   0.963126
   80       -3.442215   0.764678
   81       -2.967954   0.004243
   82       -2.856998   0.000317
   83       -2.714611   0.000005
   84       -2.564390   0.000000
   85       -2.538557   0.000000
   86       -2.422063   0.000000
   87       -2.284904   0.000000
   88       -2.206548   0.000000
   89       -2.141197   0.000000
   90       -1.986132   0.000000
   91       -1.671406   0.000000
   92       -1.593657   0.000000
   93       -1.478909   0.000000
   94       -1.325698   0.000000
   95       -1.204314   0.000000
   96       -1.117096   0.000000
   97       -1.096638   0.000000
   98       -1.036997   0.000000
   99       -0.957417   0.000000
  100       -0.927999   0.000000
  101       -0.833135   0.000000
  102       -0.713071   0.000000
  103       -0.590574   0.000000
  104       -0.532740   0.000000
  105       -0.454027   0.000000
  106       -0.337165   0.000000
  107       -0.196334   0.000000
  108       -0.136482   0.000000
  109       -0.021926   0.000000
  110        0.254752   0.000000
  111        0.379217   0.000000
  112        0.511158   0.000000
  113        0.659840   0.000000
  114        0.972091   0.000000
  115        1.069530   0.000000
  116        1.203727   0.000000
  117        1.527564   0.000000
  118        1.990299   0.000000
  119        2.165743   0.000000
  120        2.458596   0.000000
 
  0.5000000E+00  0.1110223E-15  0.0000000E+00  0.1562500E-01
    1      -17.543705   1.000000
    2      -17.307815   1.000000
    3      -16.733170   1.000000
    4      -16.722891   1.000000
    5      -16.671407   1.000000
    6      -16.454221   1.000000
    7      -16.340161   1.000000
    8      -16.170751   1.000000
    9      -16.042757   1.000000
   10      -15.991881   1.000000
   11      -15.940519   1.000000
   12      -15.849262   1.000000
   13      -15.773491   1.000000
   14      -15.739179   1.000000
   15      -15.622890   1.000000
   16      -15.467794   1.000000
   17      -15.437678   1.000000
   18      -15.212157   1.000000
   19       -9.774470   1.000000
   20       -9.383000   1.000000
   21       -9.245452   1.000000
   22       -9.081978   1.000000
   23       -9.006690   1.000000
   24       -8.829876   1.000000
   25       -8.547324   1.000000
   26       -8.502971   1.000000
   27       -8.408874   1.000000
   28       -8.336950   1.000000
   29       -8.252565   1.000000
   30       -8.176640   1.000000
   31       -8.151242   1.000000
   32       -8.038375   1.000000
   33       -7.970345   1.000000
   34       -7.906733   1.000000
   35       -7.783378   1.000000
   36       -7.717229   1.000000
   37       -7.548986   1.000000
   38       -7.403062   1.000000
   39       -7.326741   1.000000
   40       -7.254427   1.000000
   41       -7.114300   1.000000
   42       -7.063565   1.000000
   43       -7.006880   1.000000
   44       -6.951403   1.000000
   45       -6.864421   1.000000
   46       -6.758796   1.000000
   47       -6.712582   1.000000
   48       -6.657835   1.000000
   49       -6.562727   1.000000
   50       -6.500674   1.000000
   51       -6.414821   1.000000
   52       -6.368100   1.000000
   53       -6.286504   1.000000
   54       -6.255535   1.000000
   55       -6.124158   1.000000
   56       -6.083171   1.000000
   57       -5.976603   1.000000
   58       -5.922527   1.000000
   59       -5.868082   1.000000
   60       -5.821670   1.000000
   61       -5.779911   1.000000
   62       -5.603230   1.000000
   63       -5.484891   1.000000
   64       -5.360912   1.000000
   65       -5.309219   1.000000
   66       -5.118696   1.000000
   67       -4.918361   1.000000
   68       -4.891060   1.000000
   69       -4.807744   1.000000
   70       -4.750519   1.000000
   71       -4.616855   1.000000
   72       -4.515119   1.000000
   73       -4.378992   1.000000
   74       -4.198962   1.000000
   75       -4.073580   1.000000
   76       -4.031366   0.999999
   77       -3.842898   0.999811
   78       -3.707672   0.995318
   79       -3.558268   0.938469
   80       -3.468439   0.817760
   81       -2.951321   0.002982
   82       -2.840929   0.000208
   83       -2.699280   0.000003
   84       -2.565667   0.000000
   85       -2.522224   0.000000
   86       -2.402212   0.000000
   87       -2.272617   0.000000
   88       -2.186189   0.000000
   89       -2.118685   0.000000
   90       -1.940851   0.000000
   91       -1.658530   0.000000
   92       -1.601093   0.000000
   93       -1.515238   0.000000
   94       -1.360462   0.000000
   95       -1.214123   0.000000
   96       -1.182821   0.000000
   97       -1.130269   0.000000
   98       -1.049177   0.000000
   99       -0.976842   0.000000
  100       -0.949411   0.000000
  101       -0.853062   0.000000
  102       -0.726842   0.000000
  103       -0.603186   0.000000
  104       -0.555509   0.000000
  105       -0.463059   0.000000
  106       -0.367798   0.000000
  107       -0.220735   0.000000
  108       -0.157934   0.000000
  109       -0.084007   0.000000
  110        0.255211   0.000000
  111        0.374068   0.000000
  112        0.492879   0.000000
  113        0.693123   0.000000
  114        0.977200   0.000000
  115        1.098019   0.000000
  116        1.236435   0.000000
  117        1.566416   0.000000
  118        2.190401   0.000000
  119        2.257953   0.000000
  120        2.378271   0.000000
 
  0.0000000E+00  0.1250000E+00  0.0000000E+00  0.3125000E-01
    1      -17.799948   1.000000
    2      -16.786348   1.000000
    3      -16.749742   1.000000
    4      -16.659984   1.000000
    5      -16.557188   1.000000
    6      -16.435838   1.000000
    7      -16.386194   1.000000
    8      -16.292480   1.000000
    9      -16.155784   1.000000
   10      -16.092185   1.000000
   11      -16.001084   1.000000
   12      -15.933670   1.000000
   13      -15.861719   1.000000
   14      -15.756545   1.000000
   15      -15.611978   1.000000
   16      -15.415580   1.000000
   17      -15.397907   1.000000
   18      -15.190424   1.000000
   19       -9.342220   1.000000
   20       -9.163606   1.000000
   21       -9.078397   1.000000
   22       -9.025979   1.000000
   23       -8.750683   1.000000
   24       -8.714404   1.000000
   25       -8.636130   1.000000
   26       -8.577261   1.000000
   27       -8.531872   1.000000
   28       -8.467026   1.000000
   29       -8.387257   1.000000
   30       -8.338547   1.000000
   31       -8.289481   1.000000
   32       -8.028227   1.000000
   33       -7.965539   1.000000
   34       -7.912526   1.000000
   35       -7.809841   1.000000
   36       -7.785094   1.000000
   37       -7.704028   1.000000
   38       -7.521786   1.000000
   39       -7.496185   1.000000
   40       -7.392906   1.000000
   41       -7.315521   1.000000
   42       -7.268557   1.000000
   43       -7.092541   1.000000
   44       -6.946409   1.000000
   45       -6.879823   1.000000
   46       -6.792981   1.000000
   47       -6.749684   1.000000
   48       -6.666711   1.000000
   49       -6.550485   1.000000
   50       -6.492282   1.000000
   51       -6.403093   1.000000
   52       -6.362867   1.000000
   53       -6.304941   1.000000
   54       -6.251207   1.000000
   55       -6.181510   1.000000
   56       -6.131286   1.000000
   57       -6.045640   1.000000
   58       -5.939780   1.000000
   59       -5.787406   1.000000
   60       -5.531164   1.000000
   61       -5.432828   1.000000
   62       -5.376160   1.000000
   63       -5.306841   1.000000
   64       -5.222016   1.000000
   65       -5.192357   1.000000
   66       -5.018784   1.000000
   67       -4.997856   1.000000
   68       -4.903561   1.000000
   69       -4.837801   1.000000
   70       -4.676070   1.000000
   71       -4.608762   1.000000
   72       -4.557719   1.000000
   73       -4.507799   1.000000
   74       -4.332463   1.000000
   75       -4.046347   1.000000
   76       -3.914572   0.999976
   77       -3.882792   0.999938
   78       -3.736217   0.997448
   79       -3.603160   0.968521
   80       -3.340492   0.500856
   81       -3.160883   0.102419
   82       -2.970969   0.004517
   83       -2.805789   0.000079
   84       -2.697460   0.000003
   85       -2.567473   0.000000
   86       -2.416574   0.000000
   87       -2.344278   0.000000
   88       -2.286287   0.000000
   89       -2.222072   0.000000
   90       -2.128573   0.000000
   91       -1.717439   0.000000
   92       -1.532199   0.000000
   93       -1.456888   0.000000
   94       -1.256923   0.000000
   95       -1.130813   0.000000
   96       -1.053385   0.000000
   97       -0.987561   0.000000
   98       -0.904102   0.000000
   99       -0.737961   0.000000
  100       -0.707639   0.000000
  101       -0.627050   0.000000
  102       -0.573918   0.000000
  103       -0.505280   0.000000
  104       -0.420993   0.000000
  105       -0.377331   0.000000
  106       -0.260188   0.000000
  107       -0.158850   0.000000
  108        0.041304   0.000000
  109        0.171831   0.000000
  110        0.262791   0.000000
  111        0.344190   0.000000
  112        0.617324   0.000000
  113        0.722772   0.000000
  114        0.857574   0.000000
  115        0.935418   0.000000
  116        0.984514   0.000000
  117        1.319187   0.000000
  118        1.691188   0.000000
  119        1.873249   0.000000
  120        2.188533   0.000000
 
  0.1250000E+00  0.1250000E+00  0.0000000E+00  0.3125000E-01
    1      -17.751831   1.000000
    2      -16.924800   1.000000
    3      -16.760016   1.000000
    4      -16.730125   1.000000
    5      -16.518534   1.000000
    6      -16.442645   1.000000
    7      -16.360087   1.000000
    8      -16.269276   1.000000
    9      -16.162321   1.000000
   10      -16.038181   1.000000
   11      -15.985864   1.000000
   12      -15.905093   1.000000
   13      -15.806909   1.000000
   14      -15.736066   1.000000
   15      -15.626264   1.000000
   16      -15.439283   1.000000
   17      -15.410566   1.000000
   18      -15.197734   1.000000
   19       -9.414828   1.000000
   20       -9.293215   1.000000
   21       -9.204672   1.000000
   22       -9.089221   1.000000
   23       -8.811643   1.000000
   24       -8.736357   1.000000
   25       -8.626975   1.000000
   26       -8.536563   1.000000
   27       -8.480840   1.000000
   28       -8.424029   1.000000
   29       -8.372303   1.000000
   30       -8.288829   1.000000
   31       -8.161160   1.000000
   32       -8.041418   1.000000
   33       -7.951342   1.000000
   34       -7.868821   1.000000
   35       -7.721927   1.000000
   36       -7.699570   1.000000
   37       -7.627437   1.000000
   38       -7.526487   1.000000
   39       -7.471058   1.000000
   40       -7.351167   1.000000
   41       -7.328589   1.000000
   42       -7.191881   1.000000
   43       -7.125710   1.000000
   44       -7.048285   1.000000
   45       -6.856490   1.000000
   46       -6.816007   1.000000
   47       -6.764256   1.000000
   48       -6.656097   1.000000
   49       -6.548913   1.000000
   50       -6.494131   1.000000
   51       -6.416759   1.000000
   52       -6.363578   1.000000
   53       -6.319168   1.000000
   54       -6.229436   1.000000
   55       -6.160954   1.000000
   56       -6.124179   1.000000
   57       -5.984266   1.000000
   58       -5.908677   1.000000
   59       -5.733939   1.000000
   60       -5.620643   1.000000
   61       -5.529924   1.000000
   62       -5.457423   1.000000
   63       -5.380283   1.000000
   64       -5.281943   1.000000
   65       -5.226866   1.000000
   66       -5.111322   1.000000
   67       -4.943605   1.000000
   68       -4.899805   1.000000
   69       -4.799265   1.000000
   70       -4.712816   1.000000
   71       -4.611194   1.000000
   72       -4.486355   1.000000
   73       -4.368414   1.000000
   74       -4.271229   1.000000
   75       -4.116028   1.000000
   76       -4.019743   0.999999
   77       -3.825244   0.999698
   78       -3.804490   0.999487
   79       -3.626027   0.978369
   80       -3.324059   0.454595
   81       -3.100619   0.045131
   82       -2.956055   0.003301
   83       -2.774410   0.000032
   84       -2.650668   0.000001
   85       -2.566426   0.000000
   86       -2.451008   0.000000
   87       -2.307181   0.000000
   88       -2.234948   0.000000
   89       -2.193732   0.000000
   90       -2.090551   0.000000
   91       -1.719211   0.000000
   92       -1.546528   0.000000
   93       -1.462694   0.000000
   94       -1.255903   0.000000
   95       -1.119463   0.000000
   96       -1.075966   0.000000
   97       -1.024978   0.000000
   98       -0.906765   0.000000
   99       -0.843602   0.000000
  100       -0.789511   0.000000
  101       -0.715216   0.000000
  102       -0.650211   0.000000
  103       -0.523951   0.000000
  104       -0.484823   0.000000
  105       -0.434464   0.000000
  106       -0.289125   0.000000
  107       -0.210927   0.000000
  108        0.005708   0.000000
  109        0.179095   0.000000
  110        0.295020   0.000000
  111        0.374003   0.000000
  112        0.554589   0.000000
  113        0.649981   0.000000
  114        0.922827   0.000000
  115        0.980464   0.000000
  116        1.027722   0.000000
  117        1.413362   0.000000
  118        1.774204   0.000000
  119        1.949303   0.000000
  120        2.257984   0.000000
 
  0.2500000E+00  0.1250000E+00  0.0000000E+00  0.3125000E-01
    1      -17.661651   1.000000
    2      -17.102633   1.000000
    3      -16.845636   1.000000
    4      -16.732091   1.000000
    5      -16.498591   1.000000
    6      -16.453278   1.000000
    7      -16.333573   1.000000
    8      -16.222578   1.000000
    9      -16.128772   1.000000
   10      -16.020914   1.000000
   11      -15.938438   1.000000
   12      -15.902318   1.000000
   13      -15.772967   1.000000
   14      -15.696641   1.000000
   15      -15.625897   1.000000
   16      -15.476905   1.000000
   17      -15.418585   1.000000
   18      -15.207454   1.000000
   19       -9.607183   1.000000
   20       -9.436885   1.000000
   21       -9.246724   1.000000
   22       -9.118763   1.000000
   23       -8.823075   1.000000
   24       -8.777520   1.000000
   25       -8.545240   1.000000
   26       -8.492642   1.000000
   27       -8.451590   1.000000
   28       -8.377436   1.000000
   29       -8.307916   1.000000
   30       -8.244383   1.000000
   31       -8.139765   1.000000
   32       -8.072957   1.000000
   33       -7.990726   1.000000
   34       -7.882607   1.000000
   35       -7.756547   1.000000
   36       -7.693809   1.000000
   37       -7.537565   1.000000
   38       -7.429631   1.000000
   39       -7.366973   1.000000
   40       -7.283460   1.000000
   41       -7.222449   1.000000
   42       -7.168251   1.000000
   43       -7.119280   1.000000
   44       -6.998607   1.000000
   45       -6.833180   1.000000
   46       -6.795688   1.000000
   47       -6.727872   1.000000