   27   27  100    1
  0.9710400E+02  0.1002848E-08  0.1002848E-08  0.3000000E-08  0.5000000E-15
  1.000000000000000E-004
  CAR 
 unknown system                          
    159     34    120
 
  0.0000000E+00  0.0000000E+00  0.0000000E+00  0.1562500E-01
    1      -17.840247   1.000000
    2      -16.767739   1.000000
    3      -16.693969   1.000000
    4      -16.578493   1.000000
    5      -16.542021   1.000000
    6      -16.456612   1.000000
    7      -16.386964   1.000000
    8      -16.338768   1.000000
    9      -16.222042   1.000000
   10      -16.124920   1.000000
   11      -16.072821   1.000000
   12      -15.993898   1.000000
   13      -15.886064   1.000000
   14      -15.613412   1.000000
   15      -15.610984   1.000000
   16      -15.454033   1.000000
   17      -15.219750   1.000000
   18      -15.189386   1.000000
   19       -9.471598   1.000000
   20       -8.989552   1.000000
   21       -8.973423   1.000000
   22       -8.816625   1.000000
   23       -8.762258   1.000000
   24       -8.734108   1.000000
   25       -8.681756   1.000000
   26       -8.618018   1.000000
   27       -8.535695   1.000000
   28       -8.459939   1.000000
   29       -8.444643   1.000000
   30       -8.358634   1.000000
   31       -8.233196   1.000000
   32       -8.188901   1.000000
   33       -8.153238   1.000000
   34       -8.022135   1.000000
   35       -7.786000   1.000000
   36       -7.772191   1.000000
   37       -7.663223   1.000000
   38       -7.594856   1.000000
   39       -7.544137   1.000000
   40       -7.336120   1.000000
   41       -7.316329   1.000000
   42       -7.183240   1.000000
   43       -7.104745   1.000000
   44       -6.900659   1.000000
   45       -6.850831   1.000000
   46       -6.803793   1.000000
   47       -6.763340   1.000000
   48       -6.734492   1.000000
   49       -6.687339   1.000000
   50       -6.551525   1.000000
   51       -6.386801   1.000000
   52       -6.229337   1.000000
   53       -6.213120   1.000000
   54       -6.180300   1.000000
   55       -6.112532   1.000000
   56       -6.036732   1.000000
   57       -5.988645   1.000000
   58       -5.918883   1.000000
   59       -5.818278   1.000000
   60       -5.753621   1.000000
   61       -5.614710   1.000000
   62       -5.328583   1.000000
   63       -5.316140   1.000000
   64       -5.039487   1.000000
   65       -4.976759   1.000000
   66       -4.893216   1.000000
   67       -4.842575   1.000000
   68       -4.758408   1.000000
   69       -4.731036   1.000000
   70       -4.687506   1.000000
   71       -4.653280   1.000000
   72       -4.616758   1.000000
   73       -4.434838   1.000000
   74       -4.385946   1.000000
   75       -4.291018   1.000000
   76       -3.990834   1.000000
   77       -3.745532   0.999832
   78       -3.609757   0.995670
   79       -3.483948   0.958682
   80       -3.175675   0.328439
   81       -3.155596   0.278868
   82       -2.843292   0.002599
   83       -2.735166   0.000186
   84       -2.651776   0.000017
   85       -2.565849   0.000001
   86       -2.478505   0.000000
   87       -2.257906   0.000000
   88       -2.214840   0.000000
   89       -2.175773   0.000000
   90       -2.023299   0.000000
   91       -1.744743   0.000000
   92       -1.637401   0.000000
   93       -1.392045   0.000000
   94       -1.279707   0.000000
   95       -1.116592   0.000000
   96       -1.050801   0.000000
   97       -0.942693   0.000000
   98       -0.849475   0.000000
   99       -0.773903   0.000000
  100       -0.605971   0.000000
  101       -0.583335   0.000000
  102       -0.538124   0.000000
  103       -0.370944   0.000000
  104       -0.266405   0.000000
  105       -0.165739   0.000000
  106       -0.112914   0.000000
  107       -0.079754   0.000000
  108        0.156130   0.000000
  109        0.253816   0.000000
  110        0.269646   0.000000
  111        0.358260   0.000000
  112        0.492108   0.000000
  113        0.565024   0.000000
  114        0.706083   0.000000
  115        0.974924   0.000000
  116        1.144637   0.000000
  117        1.265377   0.000000
  118        1.649774   0.000000
  119        1.842663   0.000000
  120        2.177865   0.000000
 
  0.1250000E+00  0.2775558E-16  0.0000000E+00  0.3125000E-01
    1      -17.815399   1.000000
    2      -16.813696   1.000000
    3      -16.760660   1.000000
    4      -16.594067   1.000000
    5      -16.540446   1.000000
    6      -16.442719   1.000000
    7      -16.380238   1.000000
    8      -16.335331   1.000000
    9      -16.252236   1.000000
   10      -16.077235   1.000000
   11      -16.021418   1.000000
   12      -15.976724   1.000000
   13      -15.859353   1.000000
   14      -15.615979   1.000000
   15      -15.602384   1.000000
   16      -15.458303   1.000000
   17      -15.246250   1.000000
   18      -15.188115   1.000000
   19       -9.466329   1.000000
   20       -9.155833   1.000000
   21       -9.043886   1.000000
   22       -8.933494   1.000000
   23       -8.791059   1.000000
   24       -8.715466   1.000000
   25       -8.687837   1.000000
   26       -8.601859   1.000000
   27       -8.555807   1.000000
   28       -8.470279   1.000000
   29       -8.422299   1.000000
   30       -8.289843   1.000000
   31       -8.195520   1.000000
   32       -8.052572   1.000000
   33       -8.024150   1.000000
   34       -7.910961   1.000000
   35       -7.846823   1.000000
   36       -7.772415   1.000000
   37       -7.661399   1.000000
   38       -7.512744   1.000000
   39       -7.435085   1.000000
   40       -7.391293   1.000000
   41       -7.337347   1.000000
   42       -7.186920   1.000000
   43       -7.138976   1.000000
   44       -6.944809   1.000000
   45       -6.923716   1.000000
   46       -6.860653   1.000000
   47       -6.766917   1.000000
   48       -6.712168   1.000000
   49       -6.602259   1.000000
   50       -6.546600   1.000000
   51       -6.388777   1.000000
   52       -6.277336   1.000000
   53       -6.248194   1.000000
   54       -6.159995   1.000000
   55       -6.101760   1.000000
   56       -6.076248   1.000000
   57       -5.974533   1.000000
   58       -5.871213   1.000000
   59       -5.787342   1.000000
   60       -5.642350   1.000000
   61       -5.576169   1.000000
   62       -5.374665   1.000000
   63       -5.323459   1.000000
   64       -5.166006   1.000000
   65       -5.052305   1.000000
   66       -5.030436   1.000000
   67       -4.932791   1.000000
   68       -4.821022   1.000000
   69       -4.750823   1.000000
   70       -4.652839   1.000000
   71       -4.530152   1.000000
   72       -4.486915   1.000000
   73       -4.388453   1.000000
   74       -4.315746   1.000000
   75       -4.276134   1.000000
   76       -3.903612   0.999999
   77       -3.814364   0.999977
   78       -3.675088   0.998990
   79       -3.481875   0.957368
   80       -3.404371   0.879582
   81       -2.950177   0.020738
   82       -2.838982   0.002364
   83       -2.802946   0.001036
   84       -2.622610   0.000007
   85       -2.561351   0.000001
   86       -2.477672   0.000000
   87       -2.239274   0.000000
   88       -2.185974   0.000000
   89       -2.143068   0.000000
   90       -2.014277   0.000000
   91       -1.745134   0.000000
   92       -1.602898   0.000000
   93       -1.399838   0.000000
   94       -1.273406   0.000000
   95       -1.122188   0.000000
   96       -1.045364   0.000000
   97       -0.948826   0.000000
   98       -0.841824   0.000000
   99       -0.783412   0.000000
  100       -0.655383   0.000000
  101       -0.637628   0.000000
  102       -0.594127   0.000000
  103       -0.474473   0.000000
  104       -0.315872   0.000000
  105       -0.219779   0.000000
  106       -0.117353   0.000000
  107       -0.065580   0.000000
  108        0.087088   0.000000
  109        0.180122   0.000000
  110        0.280967   0.000000
  111        0.345690   0.000000
  112        0.502451   0.000000
  113        0.588178   0.000000
  114        0.782240   0.000000
  115        1.016185   0.000000
  116        1.199154   0.000000
  117        1.283732   0.000000
  118        1.694700   0.000000
  119        1.881737   0.000000
  120        2.213224   0.000000
 
  0.2500000E+00  0.5551115E-16  0.0000000E+00  0.3125000E-01
    1      -17.742656   1.000000
    2      -17.010859   1.000000
    3      -16.749440   1.000000
    4      -16.641133   1.000000
    5      -16.602871   1.000000
    6      -16.451245   1.000000
    7      -16.367701   1.000000
    8      -16.282780   1.000000
    9      -16.211276   1.000000
   10      -16.065367   1.000000
   11      -15.984024   1.000000
   12      -15.876920   1.000000
   13      -15.816831   1.000000
   14      -15.606763   1.000000
   15      -15.581603   1.000000
   16      -15.459399   1.000000
   17      -15.297894   1.000000
   18      -15.203463   1.000000
   19       -9.555053   1.000000
   20       -9.338797   1.000000
   21       -9.172481   1.000000
   22       -9.017751   1.000000
   23       -8.921774   1.000000
   24       -8.769234   1.000000
   25       -8.657102   1.000000
   26       -8.559234   1.000000
   27       -8.513786   1.000000
   28       -8.420752   1.000000
   29       -8.365883   1.000000
   30       -8.241323   1.000000
   31       -8.099422   1.000000
   32       -8.048235   1.000000
   33       -7.951655   1.000000
   34       -7.793998   1.000000
   35       -7.760142   1.000000
   36       -7.600053   1.000000
   37       -7.550418   1.000000
   38       -7.530167   1.000000
   39       -7.436054   1.000000
   40       -7.373405   1.000000
   41       -7.310605   1.000000
   42       -7.196394   1.000000
   43       -7.130605   1.000000
   44       -7.016144   1.000000
   45       -6.971207   1.000000
   46       -6.854553   1.000000
   47       -6.783425   1.000000
   48       -6.675411   1.000000
   49       -6.526949   1.000000
   50       -6.508952   1.000000
   51       -6.377650   1.000000
   52       -6.329468   1.000000
   53       -6.295556   1.000000
   54       -6.167052   1.000000
   55       -6.112916   1.000000
   56       -6.077086   1.000000
   57       -5.878417   1.000000
   58       -5.833630   1.000000
   59       -5.749230   1.000000
   60       -5.671276   1.000000
   61       -5.534937   1.000000
   62       -5.485019   1.000000
   63       -5.455798   1.000000
   64       -5.268757   1.000000
   65       -5.158406   1.000000
   66       -5.127703   1.000000
   67       -5.031878   1.000000
   68       -4.835369   1.000000
   69       -4.778574   1.000000
   70       -4.599948   1.000000
   71       -4.456025   1.000000
   72       -4.326850   1.000000
   73       -4.305576   1.000000
   74       -4.253990   1.000000
   75       -4.147499   1.000000
   76       -4.056257   1.000000
   77       -3.889658   0.999998
   78       -3.717475   0.999647
   79       -3.522330   0.977625
   80       -3.415633   0.894812
   81       -2.960860   0.024812
   82       -2.829587   0.001917
   83       -2.791819   0.000793
   84       -2.608068   0.000004
   85       -2.508343   0.000000
   86       -2.476941   0.000000
   87       -2.223898   0.000000
   88       -2.148046   0.000000
   89       -2.065357   0.000000
   90       -1.962128   0.000000
   91       -1.738100   0.000000
   92       -1.523721   0.000000
   93       -1.399962   0.000000
   94       -1.272725   0.000000
   95       -1.145988   0.000000
   96       -1.047600   0.000000
   97       -0.972858   0.000000
   98       -0.857243   0.000000
   99       -0.828209   0.000000
  100       -0.780817   0.000000
  101       -0.740120   0.000000
  102       -0.668330   0.000000
  103       -0.627779   0.000000
  104       -0.418717   0.000000
  105       -0.333457   0.000000
  106       -0.185587   0.000000
  107       -0.102560   0.000000
  108       -0.030361   0.000000
  109        0.075796   0.000000
  110        0.247080   0.000000
  111        0.317261   0.000000
  112        0.511934   0.000000
  113        0.641498   0.000000
  114        0.930664   0.000000
  115        1.123633   0.000000
  116        1.280336   0.000000
  117        1.370125   0.000000
  118        1.820099   0.000000
  119        1.994982   0.000000
  120        2.317911   0.000000
 
  0.3750000E+00  0.0000000E+00  0.0000000E+00  0.3125000E-01
    1      -17.630594   1.000000
    2      -17.213249   1.000000
    3      -16.734651   1.000000
    4      -16.682235   1.000000
    5      -16.649394   1.000000
    6      -16.493757   1.000000
    7      -16.325764   1.000000
    8      -16.256729   1.000000
    9      -16.173156   1.000000
   10      -16.038257   1.000000
   11      -15.916195   1.000000
   12      -15.853731   1.000000
   13      -15.784032   1.000000
   14      -15.611284   1.000000
   15      -15.562729   1.000000
   16      -15.420920   1.000000
   17      -15.336226   1.000000
   18      -15.240125   1.000000
   19       -9.745427   1.000000
   20       -9.398972   1.000000
   21       -9.213366   1.000000
   22       -9.058047   1.000000
   23       -8.993042   1.000000
   24       -8.825613   1.000000
   25       -8.611302   1.000000
   26       -8.577103   1.000000
   27       -8.460010   1.000000
   28       -8.351232   1.000000
   29       -8.293415   1.000000
   30       -8.227769   1.000000
   31       -8.101018   1.000000
   32       -7.993098   1.000000
   33       -7.949737   1.000000
   34       -7.792914   1.000000
   35       -7.712821   1.000000
   36       -7.634679   1.000000
   37       -7.596910   1.000000
   38       -7.513569   1.000000
   39       -7.417886   1.000000
   40       -7.330622   1.000000
   41       -7.200039   1.000000
   42       -7.119292   1.000000
   43       -7.051853   1.000000
   44       -6.979954   1.000000
   45       -6.934990   1.000000
   46       -6.826301   1.000000
   47       -6.703513   1.000000
   48       -6.578587   1.000000
   49       -6.521789   1.000000
   50       -6.449325   1.000000
   51       -6.359792   1.000000
   52       -6.311363   1.000000
   53       -6.242887   1.000000
   54       -6.163399   1.000000
   55       -6.119939   1.000000
   56       -6.074514   1.000000
   57       -6.013511   1.000000
   58       -5.964815   1.000000
   59       -5.828785   1.000000
   60       -5.731823   1.000000
   61       -5.630051   1.000000
   62       -5.553255   1.000000
   63       -5.462921   1.000000
   64       -5.285244   1.000000
   65       -5.177510   1.000000
   66       -5.121498   1.000000
   67       -5.020847   1.000000
   68       -4.846533   1.000000
   69       -4.746400   1.000000
   70       -4.682823   1.000000
   71       -4.523465   1.000000
   72       -4.392532   1.000000
   73       -4.257983   1.000000
   74       -4.195329   1.000000
   75       -4.108408   1.000000
   76       -4.000515   1.000000
   77       -3.916357   0.999999
   78       -3.702329   0.999481
   79       -3.577699   0.991769
   80       -3.301955   0.673180
   81       -3.038738   0.078898
   82       -2.828660   0.001878
   83       -2.760546   0.000363
   84       -2.624787   0.000007
   85       -2.482255   0.000000
   86       -2.429973   0.000000
   87       -2.192207   0.000000
   88       -2.115252   0.000000
   89       -2.032974   0.000000
   90       -1.866381   0.000000
   91       -1.730620   0.000000
   92       -1.483679   0.000000
   93       -1.347461   0.000000
   94       -1.278734   0.000000
   95       -1.188088   0.000000
   96       -1.113126   0.000000
   97       -1.036334   0.000000
   98       -0.920271   0.000000
   99       -0.883277   0.000000
  100       -0.842702   0.000000
  101       -0.791868   0.000000
  102       -0.753288   0.000000
  103       -0.682359   0.000000
  104       -0.509814   0.000000
  105       -0.419656   0.000000
  106       -0.287174   0.000000
  107       -0.228722   0.000000
  108       -0.056314   0.000000
  109       -0.038162   0.000000
  110        0.214598   0.000000
  111        0.310097   0.000000
  112        0.511354   0.000000
  113        0.705916   0.000000
  114        1.019897   0.000000
  115        1.230004   0.000000
  116        1.337762   0.000000
  117        1.477177   0.000000
  118        2.006345   0.000000
  119        2.173171   0.000000
  120        2.473467   0.000000
 
  0.5000000E+00  0.1110223E-15  0.0000000E+00  0.1562500E-01
    1      -17.539941   1.000000
    2      -17.336262   1.000000
    3      -16.725425   1.000000
    4      -16.702194   1.000000
    5      -16.662467   1.000000
    6      -16.510814   1.000000
    7      -16.299592   1.000000
    8      -16.265851   1.000000
    9      -16.162998   1.000000
   10      -16.000120   1.000000
   11      -15.887615   1.000000
   12      -15.877287   1.000000
   13      -15.743155   1.000000
   14      -15.644234   1.000000
   15      -15.551253   1.000000
   16      -15.409772   1.000000
   17      -15.296768   1.000000
   18      -15.294938   1.000000
   19       -9.821748   1.000000
   20       -9.429252   1.000000
   21       -9.219980   1.000000
   22       -9.087687   1.000000
   23       -8.955228   1.000000
   24       -8.851207   1.000000
   25       -8.658250   1.000000
   26       -8.582247   1.000000
   27       -8.432613   1.000000
   28       -8.306941   1.000000
   29       -8.233888   1.000000
   30       -8.182037   1.000000
   31       -8.103579   1.000000
   32       -8.002208   1.000000
   33       -7.977967   1.000000
   34       -7.791731   1.000000
   35       -7.759422   1.000000
   36       -7.660121   1.000000
   37       -7.572823   1.000000
   38       -7.563070   1.000000
   39       -7.454603   1.000000
   40       -7.332157   1.000000
   41       -7.207807   1.000000
   42       -7.022302   1.000000
   43       -6.995709   1.000000
   44       -6.921736   1.000000
   45       -6.742537   1.000000
   46       -6.689020   1.000000
   47       -6.643241   1.000000
   48       -6.597442   1.000000
   49       -6.525144   1.000000
   50       -6.505387   1.000000
   51       -6.409260   1.000000
   52       -6.366123   1.000000
   53       -6.339224   1.000000
   54       -6.221328   1.000000
   55       -6.148775   1.000000
   56       -6.070458   1.000000
   57       -6.001260   1.000000
   58       -5.850994   1.000000
   59       -5.825954   1.000000
   60       -5.744508   1.000000
   61       -5.666307   1.000000
   62       -5.544754   1.000000
   63       -5.499036   1.000000
   64       -5.386165   1.000000
   65       -5.181125   1.000000
   66       -5.082979   1.000000
   67       -5.006647   1.000000
   68       -4.956566   1.000000
   69       -4.797838   1.000000
   70       -4.625037   1.000000
   71       -4.532283   1.000000
   72       -4.449088   1.000000
   73       -4.267710   1.000000
   74       -4.186869   1.000000
   75       -4.101446   1.000000
   76       -3.918296   0.999999
   77       -3.853500   0.999993
   78       -3.736719   0.999787
   79       -3.598677   0.994565
   80       -3.277560   0.608806
   81       -2.984020   0.035975
   82       -2.910114   0.010116
   83       -2.738884   0.000206
   84       -2.630154   0.000008
   85       -2.480825   0.000000
   86       -2.399400   0.000000
   87       -2.173413   0.000000
   88       -2.096071   0.000000
   89       -2.024523   0.000000
   90       -1.833861   0.000000
   91       -1.721438   0.000000
   92       -1.476035   0.000000
   93       -1.306340   0.000000
   94       -1.275440   0.000000
   95       -1.213716   0.000000
   96       -1.175204   0.000000
   97       -1.073807   0.000000
   98       -0.940171   0.000000
   99       -0.916614   0.000000
  100       -0.853675   0.000000
  101       -0.815066   0.000000
  102       -0.779469   0.000000
  103       -0.671704   0.000000
  104       -0.546792   0.000000
  105       -0.478966   0.000000
  106       -0.321828   0.000000
  107       -0.275222   0.000000
  108       -0.086173   0.000000
  109       -0.064687   0.000000
  110        0.202023   0.000000
  111        0.311142   0.000000
  112        0.510778   0.000000
  113        0.732319   0.000000
  114        1.044029   0.000000
  115        1.274008   0.000000
  116        1.357434   0.000000
  117        1.521793   0.000000
  118        2.221128   0.000000
  119        2.258445   0.000000
  120        2.404532   0.000000
 
  0.0000000E+00  0.1250000E+00  0.0000000E+00  0.3125000E-01
    1      -17.814920   1.000000
    2      -16.817231   1.000000
    3      -16.756880   1.000000
    4      -16.608618   1.000000
    5      -16.529677   1.000000
    6      -16.429268   1.000000
    7      -16.382352   1.000000
    8      -16.331734   1.000000
    9      -16.272851   1.000000
   10      -16.078309   1.000000
   11      -16.011440   1.000000
   12      -15.968136   1.000000
   13      -15.869074   1.000000
   14      -15.616497   1.000000
   15      -15.597463   1.000000
   16      -15.463098   1.000000
   17      -15.245161   1.000000
   18      -15.187416   1.000000
   19       -9.468996   1.000000
   20       -9.169699   1.000000
   21       -9.075060   1.000000
   22       -8.921285   1.000000
   23       -8.781737   1.000000
   24       -8.721308   1.000000
   25       -8.646840   1.000000
   26       -8.600046   1.000000
   27       -8.543546   1.000000
   28       -8.433039   1.000000
   29       -8.402118   1.000000
   30       -8.301348   1.000000
   31       -8.265350   1.000000
   32       -8.033720   1.000000
   33       -7.993631   1.000000
   34       -7.971955   1.000000
   35       -7.841549   1.000000
   36       -7.769314   1.000000
   37       -7.674405   1.000000
   38       -7.515614   1.000000
   39       -7.444417   1.000000
   40       -7.385960   1.000000
   41       -7.303833   1.000000
   42       -7.214214   1.000000
   43       -7.140426   1.000000
   44       -6.948763   1.000000
   45       -6.890468   1.000000
   46       -6.844216   1.000000
   47       -6.813422   1.000000
   48       -6.702685   1.000000
   49       -6.615149   1.000000
   50       -6.526378   1.000000
   51       -6.381462   1.000000
   52       -6.269960   1.000000
   53       -6.239146   1.000000
   54       -6.151948   1.000000
   55       -6.116960   1.000000
   56       -6.044824   1.000000
   57       -5.992525   1.000000
   58       -5.900083   1.000000
   59       -5.805358   1.000000
   60       -5.626695   1.000000
   61       -5.577137   1.000000
   62       -5.365341   1.000000
   63       -5.333603   1.000000
   64       -5.191699   1.000000
   65       -5.033519   1.000000
   66       -5.023195   1.000000
   67       -4.898581   1.000000
   68       -4.830124   1.000000
   69       -4.747726   1.000000
   70       -4.649816   1.000000
   71       -4.541980   1.000000
   72       -4.489902   1.000000
   73       -4.435460   1.000000
   74       -4.319624   1.000000
   75       -4.240306   1.000000
   76       -3.911430   0.999999
   77       -3.775160   0.999926
   78       -3.726216   0.999718
   79       -3.484582   0.959077
   80       -3.373323   0.829794
   81       -2.957299   0.023385
   82       -2.842462   0.002552
   83       -2.803799   0.001057
   84       -2.617508   0.000006
   85       -2.564376   0.000001
   86       -2.474940   0.000000
   87       -2.241255   0.000000
   88       -2.170837   0.000000
   89       -2.157105   0.000000
   90       -2.012804   0.000000
   91       -1.743218   0.000000
   92       -1.611253   0.000000
   93       -1.390333   0.000000
   94       -1.285451   0.000000
   95       -1.112089   0.000000
   96       -1.046136   0.000000
   97       -0.952849   0.000000
   98       -0.845838   0.000000
   99       -0.779480   0.000000
  100       -0.634973   0.000000
  101       -0.608637   0.000000
  102       -0.573637   0.000000
  103       -0.454359   0.000000
  104       -0.339600   0.000000
  105       -0.264652   0.000000
  106       -0.159107   0.000000
  107       -0.125691   0.000000
  108        0.096778   0.000000
  109        0.232440   0.000000
  110        0.279421   0.000000
  111        0.369615   0.000000
  112        0.518957   0.000000
  113        0.635620   0.000000
  114        0.807832   0.000000
  115        0.999205   0.000000
  116        1.172754   0.000000
  117        1.244093   0.000000
  118        1.694653   0.000000
  119        1.881442   0.000000
  120        2.213273   0.000000
 
  0.1250000E+00  0.1250000E+00  0.0000000E+00  0.3125000E-01
    1      -17.764788   1.000000
    2      -16.959009   1.000000
    3      -16.739699   1.000000
    4      -16.689861   1.000000
    5      -16.519273   1.000000
    6      -16.427362   1.000000
    7      -16.399838   1.000000
    8      -16.291537   1.000000
    9      -16.221357   1.000000
   10      -16.115494   1.000000
   11      -16.001896   1.000000
   12      -15.873201   1.000000
   13      -15.825330   1.000000
   14      -15.603213   1.000000
   15      -15.573465   1.000000
   16      -15.459167   1.000000
   17      -15.290921   1.000000
   18      -15.204257   1.000000
   19       -9.514880   1.000000
   20       -9.306453   1.000000
   21       -9.213231   1.000000
   22       -8.975005   1.000000
   23       -8.842361   1.000000
   24       -8.708085   1.000000
   25       -8.628003   1.000000
   26       -8.603396   1.000000
   27       -8.515277   1.000000
   28       -8.429269   1.000000
   29       -8.377141   1.000000
   30       -8.304629   1.000000
   31       -8.180373   1.000000
   32       -8.049637   1.000000
   33       -7.977914   1.000000
   34       -7.881468   1.000000
   35       -7.720790   1.000000
   36       -7.619600   1.000000
   37       -7.570114   1.000000
   38       -7.461736   1.000000
   39       -7.422759   1.000000
   40       -7.377609   1.000000
   41       -7.272691   1.000000
   42       -7.233576   1.000000
   43       -7.137118   1.000000
   44       -7.062694   1.000000
   45       -6.958208   1.000000
   46       -6.897028   1.000000
   47       -6.764836   1.000000
   48       -6.734595   1.000000
   49       -6.550356   1.000000
   50       -6.507272   1.000000
   51       -6.380204   1.000000
   52       -6.333574   1.000000
   53       -6.295766   1.000000
   54       -6.168007   1.000000
   55       -6.123898   1.000000
   56       -6.020822   1.000000
   57       -5.917067   1.000000
   58       -5.775781   1.000000
   59       -5.735365   1.000000
   60       -5.641540   1.000000
   61       -5.555921   1.000000
   62       -5.469162   1.000000
   63       -5.308928   1.000000
   64       -5.246570   1.000000
   65       -5.205816   1.000000
   66       -5.164489   1.000000
   67       -5.036318   1.000000
   68       -4.813022   1.000000
   69       -4.760293   1.000000
   70       -4.646794   1.000000
   71       -4.486306   1.000000
   72       -4.350047   1.000000
   73       -4.301064   1.000000
   74       -4.251341   1.000000
   75       -4.169403   1.000000
   76       -3.962022   1.000000
   77       -3.887731   0.999998
   78       -3.692966   0.999345
   79       -3.562055   0.988928
   80       -3.411280   0.889100
   81       -2.976118   0.031776
   82       -2.865660   0.004190
   83       -2.796054   0.000878
   84       -2.584997   0.000002
   85       -2.546462   0.000000
   86       -2.475281   0.000000
   87       -2.274718   0.000000
   88       -2.147829   0.000000
   89       -2.084446   0.000000
   90       -1.978838   0.000000
   91       -1.741514   0.000000
   92       -1.533190   0.000000
   93       -1.398337   0.000000
   94       -1.275082   0.000000
   95       -1.119535   0.000000
   96       -1.039999   0.000000
   97       -0.959050   0.000000
   98       -0.835221   0.000000
   99       -0.799442   0.000000
  100       -0.698692   0.000000
  101       -0.677439   0.000000
  102       -0.629870   0.000000
  103       -0.558978   0.000000
  104       -0.415807   0.000000
  105       -0.362660   0.000000
  106       -0.203485   0.000000
  107       -0.173683   0.000000
  108       -0.015350   0.000000
  109        0.119430   0.000000
  110        0.236653   0.000000
  111        0.322527   0.000000
  112        0.544152   0.000000
  113        0.678761   0.000000
  114        0.933190   0.000000
  115        1.089364   0.000000
  116        1.260384   0.000000
  117        1.334955   0.000000
  118        1.781018   0.000000
  119        1.954911   0.000000
  120        2.283874   0.000000
 
  0.2500000E+00  0.1250000E+00  0.0000000E+00  0.3125000E-01
    1      -17.669983   1.000000
    2      -17.131234   1.000000
    3      -16.820923   1.000000
    4      -16.709127   1.000000
    5      -16.524752   1.000000
    6      -16.454898   1.000000
    7      -16.336223   1.000000
    8      -16.261582   1.000000
    9      -16.186913   1.000000
   10      -16.095833   1.000000
   11      -15.967012   1.000000
   12      -15.844333   1.000000
   13      -15.792959   1.000000
   14      -15.584161   1.000000
   15      -15.544316   1.000000
   16      -15.433252   1.000000
   17      -15.331204   1.000000
   18      -15.241871   1.000000
   19       -9.663943   1.000000
   20       -9.472643   1.000000
   21       -9.221246   1.000000
   22       -9.085667   1.000000
   23       -8.847520   1.000000
   24       -8.742370   1.000000
   25       -8.596540   1.000000
   26       -8.546083   1.000000
   27       -8.492393   1.000000
   28       -8.369514   1.000000
   29       -8.323486   1.000000
   30       -8.279072   1.000000
   31       -8.114373   1.000000
   32       -8.058614   1.000000
   33       -7.962202   1.000000
   34       -7.930831   1.000000
   35       -7.760033   1.000000
   36       -7.600506   1.000000
   37       -7.509952   1.000000
   38       -7.408424   1.000000
   39       -7.348614   1.000000
   40       -7.305540   1.000000
   41       -7.223553   1.000000
   42       -7.195011   1.000000
   43       -7.118727   1.000000
   44       -6.989766   1.000000
   45       -6.930852   1.000000
   46       -6.868503   1.000000
   47       -6.743400   1.000000