       N       E                     dE             d eps       ncg     rms          rms(c)
DAV:   1     0.112444059037E+04    0.11244E+04   -0.35856E+04  8160   0.577E+02
DAV:   2    -0.256829113390E+01   -0.11270E+04   -0.10869E+04 11000   0.173E+02
DAV:   3    -0.199896002749E+03   -0.19733E+03   -0.18927E+03 11000   0.819E+01
DAV:   4    -0.209024173982E+03   -0.91282E+01   -0.88086E+01 12080   0.256E+01
DAV:   5    -0.209349841840E+03   -0.32567E+00   -0.32473E+00 11520   0.357E+00    0.275E+01
DAV:   6    -0.236560551507E+03   -0.27211E+02   -0.10033E+02 12800   0.596E+01    0.595E+01
DAV:   7    -0.196082754514E+03    0.40478E+02   -0.16755E+02 12600   0.146E+02    0.198E+01
DAV:   8    -0.189206899107E+03    0.68759E+01   -0.16343E+01 12040   0.123E+01    0.118E+01
DAV:   9    -0.188000472592E+03    0.12064E+01   -0.30128E+00 13440   0.666E+00    0.817E+00
DAV:  10    -0.187021054600E+03    0.97942E+00   -0.14313E+00 13120   0.669E+00    0.201E+00
DAV:  11    -0.187219509600E+03   -0.19846E+00   -0.81053E-01 12280   0.463E+00    0.471E+00
DAV:  12    -0.187052497218E+03    0.16701E+00   -0.34203E-01 12880   0.403E+00    0.338E+00
DAV:  13    -0.186935592438E+03    0.11690E+00   -0.21332E-01 12800   0.289E+00    0.953E-01
DAV:  14    -0.186929220303E+03    0.63721E-02   -0.25495E-02 11600   0.517E-01    0.679E-01
DAV:  15    -0.186923902730E+03    0.53176E-02   -0.92055E-03 13320   0.368E-01    0.223E-01
DAV:  16    -0.186923541904E+03    0.36083E-03   -0.53053E-03 13040   0.286E-01    0.294E-01
DAV:  17    -0.186923595546E+03   -0.53642E-04   -0.37839E-03 13040   0.367E-01    0.355E-01
DAV:  18    -0.186922527501E+03    0.10680E-02   -0.21693E-03 11600   0.269E-01    0.788E-02
DAV:  19    -0.186923250738E+03   -0.72324E-03   -0.90944E-04 10960   0.115E-01    0.887E-02
DAV:  20    -0.186924242915E+03   -0.99218E-03   -0.38010E-04  8640   0.783E-02    0.384E-02
DAV:  21    -0.186924706550E+03   -0.46364E-03   -0.12394E-04  7080   0.342E-02    0.330E-02
DAV:  22    -0.186925959752E+03   -0.12532E-02   -0.17047E-04  7440   0.338E-02    0.182E-02
DAV:  23    -0.186926775490E+03   -0.81574E-03   -0.60460E-05  7400   0.282E-02    0.147E-02
DAV:  24    -0.186927108014E+03   -0.33252E-03   -0.11286E-05  6200   0.152E-02    0.490E-03
DAV:  25    -0.186927300517E+03   -0.19250E-03   -0.62278E-06  6840   0.730E-03    0.444E-03
DAV:  26    -0.186927512111E+03   -0.21159E-03   -0.61435E-06  6520   0.691E-03    0.295E-03
DAV:  27    -0.186927602079E+03   -0.89968E-04   -0.27792E-06  6840   0.484E-03
   1 F= -.18692760E+03 E0= -.18675525E+03  d E =-.186928E+03
       N       E                     dE             d eps       ncg     rms          rms(c)
DAV:   1    -0.187486964788E+03   -0.55945E+00   -0.26698E+02  8160   0.346E+01    0.464E+00
DAV:   2    -0.189411333673E+03   -0.19244E+01   -0.20571E+01 12920   0.154E+01    0.889E+00
DAV:   3    -0.189392062439E+03    0.19271E-01   -0.40909E+00 12400   0.117E+01    0.700E+00
DAV:   4    -0.188762784243E+03    0.62928E+00   -0.60394E-01 12160   0.456E+00    0.174E+00
DAV:   5    -0.188774079367E+03   -0.11295E-01   -0.31853E-01 10240   0.157E+00    0.237E+00
DAV:   6    -0.188717339390E+03    0.56740E-01   -0.30483E-01 12080   0.226E+00    0.208E+00
DAV:   7    -0.188719974719E+03   -0.26353E-02   -0.17917E-01 12200   0.264E+00    0.232E+00
DAV:   8    -0.188676506654E+03    0.43468E-01   -0.81892E-02 12920   0.152E+00    0.372E-01
DAV:   9    -0.188674484445E+03    0.20222E-02   -0.66490E-03 10840   0.267E-01    0.169E-01
DAV:  10    -0.188674066922E+03    0.41752E-03   -0.25243E-03 12440   0.140E-01    0.871E-02
DAV:  11    -0.188674193670E+03   -0.12675E-03   -0.73724E-04 11880   0.997E-02    0.648E-02
DAV:  12    -0.188674195693E+03   -0.20221E-05   -0.15002E-04  8120   0.750E-02
   2 F= -.18867420E+03 E0= -.18853223E+03  d E =-.174659E+01
       N       E                     dE             d eps       ncg     rms          rms(c)
DAV:   1    -0.190574175444E+03   -0.19000E+01   -0.30397E+01  8880   0.141E+01    0.447E+00
DAV:   2    -0.190677329221E+03   -0.10315E+00   -0.29259E+00 11360   0.102E+01    0.808E+00
DAV:   3    -0.190028559093E+03    0.64877E+00   -0.13816E+00 12240   0.857E+00    0.392E+00
DAV:   4    -0.189844858911E+03    0.18370E+00   -0.66435E-01 12280   0.364E+00    0.249E+00
DAV:   5    -0.189765775131E+03    0.79084E-01   -0.28565E-01 12000   0.197E+00    0.120E+00
DAV:   6    -0.189749059355E+03    0.16716E-01   -0.58928E-02 11920   0.140E+00    0.856E-01
DAV:   7    -0.189743208188E+03    0.58512E-02   -0.14108E-02 11520   0.702E-01    0.197E-01
DAV:   8    -0.189743249099E+03   -0.40912E-04   -0.21120E-03 12200   0.165E-01    0.146E-01
DAV:   9    -0.189743500803E+03   -0.25170E-03   -0.11431E-03 10560   0.179E-01    0.187E-01
DAV:  10    -0.189743812788E+03   -0.31199E-03   -0.14940E-03 10480   0.269E-01    0.230E-01
DAV:  11    -0.189743266406E+03    0.54638E-03   -0.76567E-04  8920   0.168E-01    0.207E-02
DAV:  12    -0.189743295075E+03   -0.28669E-04   -0.74311E-05  5720   0.285E-02
   3 F= -.18974330E+03 E0= -.18962361E+03  d E =-.106910E+01
       N       E                     dE             d eps       ncg     rms          rms(c)
DAV:   1    -0.191236055683E+03   -0.14928E+01   -0.63109E+01  8160   0.182E+01    0.464E+00
DAV:   2    -0.191350594483E+03   -0.11454E+00   -0.55912E+00 13600   0.100E+01    0.683E+00
DAV:   3    -0.191000754854E+03    0.34984E+00   -0.16836E+00 12080   0.922E+00    0.493E+00
DAV:   4    -0.190758387603E+03    0.24237E+00   -0.86745E-01 12280   0.506E+00    0.256E+00
DAV:   5    -0.190666086002E+03    0.92302E-01   -0.27722E-01 12120   0.209E+00    0.123E+00
DAV:   6    -0.190656623865E+03    0.94621E-02   -0.10653E-01 11720   0.199E+00    0.143E+00
DAV:   7    -0.190642850584E+03    0.13773E-01   -0.52324E-02 11400   0.159E+00    0.598E-01
DAV:   8    -0.190638006747E+03    0.48438E-02   -0.67672E-03 12240   0.470E-01    0.117E-01
DAV:   9    -0.190638493367E+03   -0.48662E-03   -0.19218E-03 10160   0.130E-01    0.123E-01
DAV:  10    -0.190638356169E+03    0.13720E-03   -0.69874E-04 10640   0.144E-01    0.933E-02
DAV:  11    -0.190638339435E+03    0.16733E-04   -0.27649E-04  7880   0.120E-01
   4 F= -.19063834E+03 E0= -.19053812E+03  d E =-.895044E+00
       N       E                     dE             d eps       ncg     rms          rms(c)
DAV:   1    -0.191934851886E+03   -0.12965E+01   -0.11412E+02  8160   0.242E+01    0.569E+00
DAV:   2    -0.192050510136E+03   -0.11566E+00   -0.93474E+00 13560   0.118E+01    0.706E+00
DAV:   3    -0.191730400686E+03    0.32011E+00   -0.23297E+00 11720   0.113E+01    0.627E+00
DAV:   4    -0.191361435903E+03    0.36896E+00   -0.13633E+00 12240   0.751E+00    0.315E+00
DAV:   5    -0.191204182964E+03    0.15725E+00   -0.42903E-01 12600   0.313E+00    0.159E+00
DAV:   6    -0.191201371953E+03    0.28110E-02   -0.18807E-01 12560   0.303E+00    0.196E+00
DAV:   7    -0.191168033886E+03    0.33338E-01   -0.88327E-02 12360   0.214E+00    0.548E-01
DAV:   8    -0.191162830477E+03    0.52034E-02   -0.90907E-03 11160   0.468E-01    0.152E-01
DAV:   9    -0.191164375334E+03   -0.15449E-02   -0.36453E-03 11720   0.368E-01    0.353E-01
DAV:  10    -0.191163243497E+03    0.11318E-02   -0.23396E-03 11200   0.363E-01    0.774E-02
DAV:  11    -0.191163224021E+03    0.19476E-04   -0.22630E-04  6240   0.734E-02
   5 F= -.19116322E+03 E0= -.19107244E+03  d E =-.524885E+00
       N       E                     dE             d eps       ncg     rms          rms(c)
DAV:   1    -0.191203412243E+03   -0.40169E-01   -0.35931E+00  8160   0.406E+00    0.530E-01
DAV:   2    -0.191215485571E+03   -0.12073E-01   -0.14521E-01 13200   0.129E+00    0.752E-01
DAV:   3    -0.191211604302E+03    0.38813E-02   -0.31791E-02 12320   0.124E+00    0.691E-01
DAV:   4    -0.191207608922E+03    0.39954E-02   -0.12495E-02 11320   0.814E-01    0.320E-01
DAV:   5    -0.191206179785E+03    0.14291E-02   -0.41524E-03 10200   0.406E-01    0.223E-01
DAV:   6    -0.191206235496E+03   -0.55711E-04   -0.26329E-03 12200   0.387E-01    0.219E-01
DAV:   7    -0.191205685218E+03    0.55028E-03   -0.89762E-04 10320   0.210E-01    0.409E-02
DAV:   8    -0.191205723497E+03   -0.38279E-04   -0.13890E-04  6160   0.850E-02
   6 F= -.19120572E+03 E0= -.19111231E+03  d E =-.424995E-01
       N       E                     dE             d eps       ncg     rms          rms(c)
DAV:   1    -0.191218699417E+03   -0.13014E-01   -0.36061E-01  8160   0.130E+00    0.183E-01
DAV:   2    -0.191219536256E+03   -0.83684E-03   -0.13622E-02 11720   0.381E-01    0.230E-01
DAV:   3    -0.191219475679E+03    0.60577E-04   -0.33658E-03 12160   0.426E-01    0.256E-01
DAV:   4    -0.191218847878E+03    0.62780E-03   -0.15290E-03 10080   0.290E-01    0.107E-01
DAV:   5    -0.191218762524E+03    0.85354E-04   -0.57804E-04  9400   0.152E-01
   7 F= -.19121876E+03 E0= -.19112418E+03  d E =-.130390E-01
       N       E                     dE             d eps       ncg     rms          rms(c)
DAV:   1    -0.191212520309E+03    0.63276E-02   -0.14205E+00  8160   0.279E+00    0.640E-01
DAV:   2    -0.191211042082E+03    0.14782E-02   -0.90924E-02 12600   0.116E+00    0.821E-01
DAV:   3    -0.191210552855E+03    0.48923E-03   -0.38515E-02 12040   0.150E+00    0.869E-01
DAV:   4    -0.191202662675E+03    0.78902E-02   -0.18638E-02 11400   0.989E-01    0.364E-01
DAV:   5    -0.191202779720E+03   -0.11705E-03   -0.87156E-03 10720   0.656E-01    0.437E-01
DAV:   6    -0.191200482876E+03    0.22968E-02   -0.40324E-03 11920   0.452E-01    0.906E-02
DAV:   7    -0.191200504320E+03   -0.21444E-04   -0.60897E-04 10080   0.128E-01
   8 F= -.19120050E+03 E0= -.19110821E+03  d E =0.182582E-01
       N       E                     dE             d eps       ncg     rms          rms(c)
DAV:   1    -0.191288618399E+03   -0.88136E-01   -0.80155E+00  8160   0.624E+00    0.102E+00
DAV:   2    -0.191303561065E+03   -0.14943E-01   -0.30884E-01 13240   0.222E+00    0.157E+00
DAV:   3    -0.191290399926E+03    0.13161E-01   -0.11055E-01 12200   0.251E+00    0.121E+00
DAV:   4    -0.191275302800E+03    0.15097E-01   -0.42163E-02 12240   0.144E+00    0.653E-01
DAV:   5    -0.191274751576E+03    0.55122E-03   -0.24956E-02 10960   0.111E+00    0.776E-01
DAV:   6    -0.191268564776E+03    0.61868E-02   -0.14952E-02 12160   0.849E-01    0.228E-01
DAV:   7    -0.191267910949E+03    0.65383E-03   -0.26168E-03 10840   0.258E-01    0.970E-02
DAV:   8    -0.191268005080E+03   -0.94131E-04   -0.90136E-04 11200   0.207E-01
   9 F= -.19126801E+03 E0= -.19117052E+03  d E =-.675008E-01
       N       E                     dE             d eps       ncg     rms          rms(c)
DAV:   1    -0.191236650735E+03    0.31260E-01   -0.16846E+00  8160   0.284E+00    0.455E-01
DAV:   2    -0.191245516339E+03   -0.88656E-02   -0.81672E-02 12320   0.127E+00    0.957E-01
DAV:   3    -0.191237259390E+03    0.82569E-02   -0.27481E-02 12080   0.118E+00    0.431E-01
DAV:   4    -0.191236103630E+03    0.11558E-02   -0.79084E-03 12200   0.583E-01    0.345E-01
DAV:   5    -0.191235420248E+03    0.68338E-03   -0.53073E-03 10480   0.541E-01    0.326E-01
DAV:   6    -0.191234267259E+03    0.11530E-02   -0.25108E-03 10920   0.347E-01    0.903E-02
DAV:   7    -0.191234194710E+03    0.72549E-04   -0.50461E-04  9640   0.117E-01
  10 F= -.19123419E+03 E0= -.19113750E+03  d E =0.338104E-01
       N       E                     dE             d eps       ncg     rms          rms(c)
DAV:   1    -0.191336661749E+03   -0.10239E+00   -0.12863E+01  8160   0.767E+00    0.971E-01
DAV:   2    -0.191382611715E+03   -0.45950E-01   -0.43888E-01 13600   0.278E+00    0.177E+00
DAV:   3    -0.191350893976E+03    0.31718E-01   -0.10109E-01 12000   0.237E+00    0.966E-01
DAV:   4    -0.191343963716E+03    0.69303E-02   -0.36448E-02 12200   0.125E+00    0.644E-01
DAV:   5    -0.191341263524E+03    0.27002E-02   -0.20074E-02 10520   0.102E+00    0.622E-01
DAV:   6    -0.191337392454E+03    0.38711E-02   -0.99585E-03 12600   0.733E-01    0.222E-01
DAV:   7    -0.191336740710E+03    0.65174E-03   -0.18455E-03 12480   0.226E-01    0.603E-02
DAV:   8    -0.191336736724E+03    0.39860E-05   -0.33458E-04  7800   0.977E-02
  11 F= -.19133674E+03 E0= -.19123878E+03  d E =-.102542E+00
       N       E                     dE             d eps       ncg     rms          rms(c)
DAV:   1    -0.191346505488E+03   -0.97648E-02   -0.18946E-01  8160   0.983E-01    0.218E-01
DAV:   2    -0.191348779173E+03   -0.22737E-02   -0.14357E-02 12720   0.652E-01    0.529E-01
DAV:   3    -0.191346018974E+03    0.27602E-02   -0.67278E-03 11160   0.623E-01    0.172E-01
DAV:   4    -0.191345703636E+03    0.31534E-03   -0.12203E-03 10320   0.208E-01    0.102E-01
DAV:   5    -0.191345700076E+03    0.35597E-05   -0.74137E-04 10200   0.197E-01
  12 F= -.19134570E+03 E0= -.19124772E+03  d E =-.896335E-02
       N       E                     dE             d eps       ncg     rms          rms(c)
DAV:   1    -0.191329005594E+03    0.16698E-01   -0.35451E+01  8160   0.132E+01    0.256E+00
DAV:   2    -0.191453990230E+03   -0.12498E+00   -0.19100E+00 13520   0.633E+00    0.415E+00
DAV:   3    -0.191306295630E+03    0.14769E+00   -0.66113E-01 11560   0.626E+00    0.279E+00
DAV:   4    -0.191230055684E+03    0.76240E-01   -0.23160E-01 12120   0.346E+00    0.169E+00
DAV:   5    -0.191226563148E+03    0.34925E-02   -0.17521E-01 11280   0.301E+00    0.172E+00
DAV:   6    -0.191189775688E+03    0.36787E-01   -0.63774E-02 12440   0.175E+00    0.422E-01
DAV:   7    -0.191191129050E+03   -0.13534E-02   -0.16330E-02 11240   0.882E-01    0.571E-01
DAV:   8    -0.191188176091E+03    0.29530E-02   -0.73952E-03 11320   0.654E-01    0.189E-01
DAV:   9    -0.191187612034E+03    0.56406E-03   -0.10814E-03 10000   0.171E-01    0.636E-02
DAV:  10    -0.191187715585E+03   -0.10355E-03   -0.35055E-04  9640   0.586E-02    0.487E-02
DAV:  11    -0.191187694264E+03    0.21321E-04   -0.13376E-04  6160   0.434E-02
  13 F= -.19118769E+03 E0= -.19109532E+03  d E =0.158006E+00
       N       E                     dE             d eps       ncg     rms          rms(c)
DAV:   1    -0.191214213834E+03   -0.26498E-01   -0.34337E+00  8160   0.394E+00    0.463E-01
DAV:   2    -0.191227883421E+03   -0.13670E-01   -0.11432E-01 13600   0.136E+00    0.880E-01
DAV:   3    -0.191220374733E+03    0.75087E-02   -0.28779E-02 11840   0.129E+00    0.504E-01
DAV:   4    -0.191217997580E+03    0.23772E-02   -0.73683E-03 11400   0.595E-01    0.237E-01
DAV:   5    -0.191217385634E+03    0.61195E-03   -0.27553E-03 10920   0.358E-01    0.216E-01
DAV:   6    -0.191217131196E+03    0.25444E-03   -0.17374E-03 11200   0.322E-01    0.144E-01
DAV:   7    -0.191217016125E+03    0.11507E-03   -0.70933E-04  9080   0.188E-01    0.114E-01
DAV:   8    -0.191216879699E+03    0.13643E-03   -0.26513E-04  7400   0.123E-01    0.245E-02
DAV:   9    -0.191216887188E+03   -0.74887E-05   -0.32106E-05  5840   0.301E-02
  14 F= -.19121689E+03 E0= -.19112208E+03  d E =-.291929E-01
       N       E                     dE             d eps       ncg     rms          rms(c)
DAV:   1    -0.191042768045E+03    0.17411E+00   -0.69692E+01  8160   0.179E+01    0.198E+00
DAV:   2    -0.191339265543E+03   -0.29650E+00   -0.21788E+00 13600   0.605E+00    0.432E+00
DAV:   3    -0.191170564727E+03    0.16870E+00   -0.66794E-01 12240   0.598E+00    0.210E+00
DAV:   4    -0.191124790452E+03    0.45774E-01   -0.12765E-01 12640   0.233E+00    0.103E+00
DAV:   5    -0.191114836808E+03    0.99536E-02   -0.53421E-02 11520   0.159E+00    0.108E+00
DAV:   6    -0.191105883011E+03    0.89538E-02   -0.37236E-02 12480   0.146E+00    0.589E-01
DAV:   7    -0.191101582941E+03    0.43001E-02   -0.91410E-03 12720   0.570E-01    0.165E-01
DAV:   8    -0.191101411425E+03    0.17152E-03   -0.19433E-03 12000   0.263E-01    0.173E-01
DAV:   9    -0.191101297863E+03    0.11356E-03   -0.11563E-03 10320   0.254E-01    0.134E-01
DAV:  10    -0.191101057507E+03    0.24036E-03   -0.40514E-04  8680   0.126E-01    0.353E-02
DAV:  11    -0.191101055456E+03    0.20508E-05   -0.12137E-04  6560   0.422E-02
  15 F= -.19110106E+03 E0= -.19101943E+03  d E =0.115832E+00
       N       E                     dE             d eps       ncg     rms          rms(c)
DAV:   1    -0.191000784512E+03    0.10027E+00   -0.10929E+02  8160   0.224E+01    0.269E+00
DAV:   2    -0.191619147948E+03   -0.61836E+00   -0.37651E+00 13520   0.866E+00    0.700E+00
DAV:   3    -0.191187255390E+03    0.43189E+00   -0.16317E+00 12240   0.907E+00    0.275E+00
DAV:   4    -0.191096421050E+03    0.90834E-01   -0.24854E-01 12800   0.289E+00    0.133E+00
DAV:   5    -0.191084488310E+03    0.11933E-01   -0.10940E-01 12680   0.215E+00    0.165E+00
DAV:   6    -0.191063613632E+03    0.20875E-01   -0.90111E-02 12080   0.214E+00    0.842E-01
DAV:   7    -0.191059987436E+03    0.36262E-02   -0.26062E-02 12720   0.106E+00    0.641E-01
DAV:   8    -0.191054985190E+03    0.50022E-02   -0.92281E-03 11600   0.743E-01    0.212E-01
DAV:   9    -0.191054741182E+03    0.24401E-03   -0.18568E-03 11800   0.259E-01    0.133E-01
DAV:  10    -0.191054451721E+03    0.28946E-03   -0.67762E-04 11120   0.106E-01    0.478E-02
DAV:  11    -0.191054428500E+03    0.23221E-04   -0.17254E-04  7000   0.461E-02
  16 F= -.19105443E+03 E0= -.19096737E+03  d E =0.466270E-01
       N       E                     dE             d eps       ncg     rms          rms(c)
DAV:   1    -0.191107465756E+03   -0.53014E-01   -0.78989E+00  8160   0.597E+00    0.773E-01
DAV:   2    -0.191138961345E+03   -0.31496E-01   -0.26223E-01 13600   0.187E+00    0.130E+00
DAV:   3    -0.191116011265E+03    0.22950E-01   -0.81768E-02 11680   0.188E+00    0.868E-01
DAV:   4    -0.191108530484E+03    0.74808E-02   -0.20622E-02 12560   0.105E+00    0.395E-01
DAV:   5    -0.191106963001E+03    0.15675E-02   -0.70534E-03 12360   0.517E-01    0.352E-01
DAV:   6    -0.191106329311E+03    0.63369E-03   -0.47318E-03 11480   0.536E-01    0.266E-01
DAV:   7    -0.191105742481E+03    0.58683E-03   -0.18609E-03 11320   0.294E-01    0.121E-01
DAV:   8    -0.191105704222E+03    0.38260E-04   -0.87242E-04 10400   0.209E-01
  17 F= -.19110570E+03 E0= -.19101739E+03  d E =-.512757E-01
       N       E                     dE             d eps       ncg     rms          rms(c)
DAV:   1    -0.191146785876E+03   -0.41043E-01   -0.61422E+00  8160   0.526E+00    0.664E-01
DAV:   2    -0.191170829902E+03   -0.24044E-01   -0.20475E-01 13480   0.158E+00    0.106E+00
DAV:   3    -0.191155729148E+03    0.15101E-01   -0.61644E-02 12200   0.163E+00    0.789E-01
DAV:   4    -0.191149732218E+03    0.59969E-02   -0.15536E-02 12640   0.943E-01    0.311E-01
DAV:   5    -0.191148415692E+03    0.13165E-02   -0.35872E-03 12400   0.354E-01    0.220E-01
DAV:   6    -0.191148678902E+03   -0.26321E-03   -0.26509E-03 11880   0.406E-01    0.262E-01
DAV:   7    -0.191148027200E+03    0.65170E-03   -0.13851E-03 10840   0.276E-01    0.859E-02
DAV:   8    -0.191148012660E+03    0.14540E-04   -0.43234E-04  9240   0.147E-01
  18 F= -.19114801E+03 E0= -.19105746E+03  d E =-.423084E-01
       N       E                     dE             d eps       ncg     rms          rms(c)
DAV:   1    -0.191176776188E+03   -0.28749E-01   -0.21792E+00  8160   0.312E+00    0.348E-01
DAV:   2    -0.191183467543E+03   -0.66914E-02   -0.55713E-02 13560   0.105E+00    0.686E-01
DAV:   3    -0.191178595572E+03    0.48720E-02   -0.14269E-02 12360   0.867E-01    0.295E-01
DAV:   4    -0.191177909545E+03    0.68603E-03   -0.36980E-03 12280   0.349E-01    0.180E-01
DAV:   5    -0.191177430526E+03    0.47902E-03   -0.17387E-03 11360   0.221E-01    0.131E-01
DAV:   6    -0.191177580342E+03   -0.14982E-03   -0.11723E-03 10520   0.272E-01    0.166E-01
DAV:   7    -0.191177275919E+03    0.30442E-03   -0.53992E-04  8600   0.174E-01    0.362E-02
DAV:   8    -0.191177286800E+03   -0.10881E-04   -0.89310E-05  5760   0.725E-02
  19 F= -.19117729E+03 E0= -.19108393E+03  d E =-.292741E-01
       N       E                     dE             d eps       ncg     rms          rms(c)
DAV:   1    -0.191152904811E+03    0.24371E-01   -0.14706E+00  8160   0.256E+00    0.258E-01
DAV:   2    -0.191156948743E+03   -0.40439E-02   -0.33515E-02 13600   0.783E-01    0.502E-01
DAV:   3    -0.191154260708E+03    0.26880E-02   -0.71869E-03 12320   0.624E-01    0.213E-01
DAV:   4    -0.191153940417E+03    0.32029E-03   -0.18391E-03 11240   0.253E-01    0.128E-01
DAV:   5    -0.191153656191E+03    0.28423E-03   -0.87771E-04 10080   0.138E-01    0.709E-02
DAV:   6    -0.191153874146E+03   -0.21795E-03   -0.63943E-04 10160   0.193E-01    0.153E-01
DAV:   7    -0.191153617495E+03    0.25665E-03   -0.39120E-04  8520   0.155E-01    0.235E-02
DAV:   8    -0.191153625101E+03   -0.76064E-05   -0.37682E-05  5680   0.307E-02
  20 F= -.19115363E+03 E0= -.19106225E+03  d E =0.236617E-01
       N       E                     dE             d eps       ncg     rms          rms(c)
DAV:   1    -0.191032729826E+03    0.12089E+00   -0.55147E+01  8160   0.156E+01    0.147E+00
DAV:   2    -0.191149140173E+03   -0.11641E+00   -0.11765E+00 13360   0.393E+00    0.233E+00
DAV:   3    -0.191104777882E+03    0.44362E-01   -0.17075E-01 12200   0.320E+00    0.138E+00
DAV:   4    -0.191084038943E+03    0.20739E-01   -0.42259E-02 11800   0.144E+00    0.663E-01
DAV:   5    -0.191091842044E+03   -0.78031E-02   -0.34866E-02 11840   0.146E+00    0.109E+00
DAV:   6    -0.191080722325E+03    0.11120E-01   -0.20319E-02 12720   0.106E+00    0.263E-01
DAV:   7    -0.191079276491E+03    0.14458E-02   -0.31711E-03 11320   0.277E-01    0.122E-01
DAV:   8    -0.191079375094E+03   -0.98604E-04   -0.95437E-04 10800   0.220E-01
  21 F= -.19107938E+03 E0= -.19099725E+03  d E =0.742500E-01
       N       E                     dE             d eps       ncg     rms          rms(c)
DAV:   1    -0.191082561539E+03   -0.32850E-02   -0.19573E-01  8200   0.964E-01    0.148E-01
DAV:   2    -0.191084063497E+03   -0.15020E-02   -0.11361E-02 12400   0.451E-01    0.323E-01
DAV:   3    -0.191083055489E+03    0.10080E-02   -0.26841E-03 11240   0.396E-01    0.132E-01
DAV:   4    -0.191082929194E+03    0.12630E-03   -0.54929E-04  8640   0.161E-01    0.955E-02
DAV:   5    -0.191082870170E+03    0.59024E-04   -0.45738E-04  9200   0.154E-01
  22 F= -.19108287E+03 E0= -.19100035E+03  d E =-.349508E-02
       N       E                     dE             d eps       ncg     rms          rms(c)
DAV:   1    -0.191098008267E+03   -0.15079E-01   -0.15421E+00  8160   0.266E+00    0.362E-01
DAV:   2    -0.191102941581E+03   -0.49333E-02   -0.53175E-02 13520   0.887E-01    0.561E-01
DAV:   3    -0.191099899714E+03    0.30419E-02   -0.15717E-02 12520   0.859E-01    0.423E-01
DAV:   4    -0.191098399665E+03    0.15000E-02   -0.56594E-03 12520   0.534E-01    0.241E-01
DAV:   5    -0.191097746211E+03    0.65345E-03   -0.19793E-03 11400   0.279E-01    0.170E-01
DAV:   6    -0.191097611002E+03    0.13521E-03   -0.11807E-03 10840   0.273E-01    0.133E-01
DAV:   7    -0.191097421042E+03    0.18996E-03   -0.43523E-04  8560   0.146E-01    0.377E-02
DAV:   8    -0.191097431098E+03   -0.10056E-04   -0.12081E-04  6280   0.774E-02
  23 F= -.19109743E+03 E0= -.19101315E+03  d E =-.145609E-01
       N       E                     dE             d eps       ncg     rms          rms(c)
DAV:   1    -0.191109280783E+03   -0.11860E-01   -0.10002E+00  8160   0.212E+00    0.251E-01
DAV:   2    -0.191112506688E+03   -0.32259E-02   -0.32591E-02 13560   0.621E-01    0.342E-01
DAV:   3    -0.191110624875E+03    0.18818E-02   -0.70606E-03 11960   0.498E-01    0.232E-01
DAV:   4    -0.191110338450E+03    0.28642E-03   -0.19994E-03 11520   0.326E-01    0.172E-01
DAV:   5    -0.191110017945E+03    0.32051E-03   -0.70012E-04 10080   0.178E-01    0.101E-01
DAV:   6    -0.191110054003E+03   -0.36058E-04   -0.51302E-04  9040   0.179E-01
  24 F= -.19111005E+03 E0= -.19102469E+03  d E =-.126229E-01
       N       E                     dE             d eps       ncg     rms          rms(c)
DAV:   1    -0.191120983434E+03   -0.10965E-01   -0.66680E-01  8160   0.174E+00    0.215E-01
DAV:   2    -0.191122769627E+03   -0.17862E-02   -0.21071E-02 13040   0.456E-01    0.256E-01
DAV:   3    -0.191121755699E+03    0.10139E-02   -0.45163E-03 12320   0.380E-01    0.215E-01
DAV:   4    -0.191121509191E+03    0.24651E-03   -0.16243E-03 10560   0.309E-01    0.160E-01
DAV:   5    -0.191121233168E+03    0.27602E-03   -0.60707E-04  8880   0.173E-01    0.872E-02
DAV:   6    -0.191121238908E+03   -0.57396E-05   -0.34661E-04  8640   0.149E-01
  25 F= -.19112124E+03 E0= -.19103437E+03  d E =-.111849E-01
       N       E                     dE             d eps       ncg     rms          rms(c)
DAV:   1    -0.191126998862E+03   -0.57657E-02   -0.27173E-01  8160   0.111E+00    0.123E-01
DAV:   2    -0.191127738120E+03   -0.73926E-03   -0.70816E-03 13600   0.313E-01    0.196E-01
DAV:   3    -0.191127377534E+03    0.36059E-03   -0.16690E-03 12120   0.294E-01    0.147E-01
DAV:   4    -0.191127213619E+03    0.16392E-03   -0.58592E-04  9000   0.182E-01    0.825E-02
DAV:   5    -0.191127186865E+03    0.26754E-04   -0.27257E-04  7440   0.115E-01
  26 F= -.19112719E+03 E0= -.19103965E+03  d E =-.594796E-02
       N       E                     dE             d eps       ncg     rms          rms(c)
DAV:   1    -0.191123553687E+03    0.36599E-02   -0.83875E-01  8160   0.192E+00    0.189E-01
DAV:   2    -0.191126078654E+03   -0.25250E-02   -0.17119E-02 13600   0.590E-01    0.438E-01
DAV:   3    -0.191124297714E+03    0.17809E-02   -0.50743E-03 11720   0.534E-01    0.176E-01
DAV:   4    -0.191124188991E+03    0.10872E-03   -0.10004E-03  9760   0.205E-01    0.135E-01
DAV:   5    -0.191124085248E+03    0.10374E-03   -0.68023E-04  9560   0.207E-01    0.117E-01
DAV:   6    -0.191123983732E+03    0.10152E-03   -0.38345E-04  8400   0.145E-01    0.550E-02
DAV:   7    -0.191123990181E+03   -0.64495E-05   -0.14791E-04  6280   0.893E-02
  27 F= -.19112399E+03 E0= -.19103702E+03  d E =0.319668E-02
       N       E                     dE             d eps       ncg     rms          rms(c)
DAV:   1    -0.191120460431E+03    0.35233E-02   -0.15103E+00  8160   0.257E+00    0.259E-01
DAV:   2    -0.191124869075E+03   -0.44086E-02   -0.29725E-02 13600   0.797E-01    0.575E-01
DAV:   3    -0.191121738105E+03    0.31310E-02   -0.86374E-03 11720   0.717E-01    0.237E-01
DAV:   4    -0.191121594078E+03    0.14403E-03   -0.18314E-03 10160   0.282E-01    0.195E-01
DAV:   5    -0.191121355175E+03    0.23890E-03   -0.13434E-03 11360   0.285E-01    0.158E-01
DAV:   6    -0.191121191425E+03    0.16375E-03   -0.69495E-04  8480   0.193E-01    0.821E-02
DAV:   7    -0.191121208119E+03   -0.16695E-04   -0.33458E-04  8280   0.135E-01
  28 F= -.19112121E+03 E0= -.19103478E+03  d E =0.278206E-02
       N       E                     dE             d eps       ncg     rms          rms(c)
DAV:   1    -0.191120312236E+03    0.87919E-03   -0.54899E-01  8160   0.158E+00    0.179E-01
DAV:   2    -0.191121752763E+03   -0.14405E-02   -0.12969E-02 13480   0.494E-01    0.350E-01
DAV:   3    -0.191120690777E+03    0.10620E-02   -0.35774E-03 12160   0.457E-01    0.165E-01
DAV:   4    -0.191120410064E+03    0.28071E-03   -0.70732E-04  9120   0.178E-01    0.778E-02
DAV:   5    -0.191120498856E+03   -0.88792E-04   -0.56219E-04  9640   0.170E-01
  29 F= -.19112050E+03 E0= -.19103427E+03  d E =0.709263E-03
       N       E                     dE             d eps       ncg     rms          rms(c)
DAV:   1    -0.191139833847E+03   -0.19424E-01   -0.48217E+00  8160   0.464E+00    0.521E-01
DAV:   2    -0.191156748853E+03   -0.16915E-01   -0.11884E-01 13560   0.152E+00    0.112E+00
DAV:   3    -0.191145290807E+03    0.11458E-01   -0.39231E-02 11960   0.151E+00    0.568E-01
DAV:   4    -0.191142604499E+03    0.26863E-02   -0.92539E-03 12320   0.623E-01    0.296E-01
DAV:   5    -0.191142361318E+03    0.24318E-03   -0.46997E-03 11480   0.478E-01    0.353E-01
DAV:   6    -0.191141295524E+03    0.10658E-02   -0.33349E-03 11520   0.432E-01    0.155E-01
DAV:   7    -0.191141388010E+03   -0.92486E-04   -0.12630E-03  9880   0.246E-01    0.175E-01
DAV:   8    -0.191141052714E+03    0.33530E-03   -0.57078E-04  9640   0.188E-01    0.433E-02
DAV:   9    -0.191141034209E+03    0.18505E-04   -0.61426E-05  6240   0.496E-02
  30 F= -.19114103E+03 E0= -.19105212E+03  d E =-.205354E-01
       N       E                     dE             d eps       ncg     rms          rms(c)
DAV:   1    -0.191145095972E+03   -0.40433E-02   -0.18008E-01  8160   0.899E-01    0.100E-01
DAV:   2    -0.191145603277E+03   -0.50730E-03   -0.49854E-03 13520   0.262E-01    0.163E-01
DAV:   3    -0.191145377577E+03    0.22570E-03   -0.11593E-03 10600   0.243E-01    0.125E-01
DAV:   4    -0.191145261443E+03    0.11613E-03   -0.42848E-04  8400   0.148E-01    0.706E-02
DAV:   5    -0.191145232395E+03    0.29048E-04   -0.17151E-04  5960   0.987E-02
  31 F= -.19114523E+03 E0= -.19105600E+03  d E =-.419819E-02
       N       E                     dE             d eps       ncg     rms          rms(c)
DAV:   1    -0.191109768738E+03    0.35493E-01   -0.68678E+00  8160   0.559E+00    0.656E-01
DAV:   2    -0.191142794373E+03   -0.33026E-01   -0.23006E-01 13520   0.197E+00    0.146E+00
DAV:   3    -0.191123236389E+03    0.19558E-01   -0.74053E-02 11880   0.195E+00    0.805E-01
DAV:   4    -0.191116806182E+03    0.64302E-02   -0.16591E-02 12400   0.847E-01    0.348E-01
DAV:   5    -0.191116419548E+03    0.38663E-03   -0.68236E-03 10840   0.554E-01    0.428E-01
DAV:   6    -0.191114818524E+03    0.16010E-02   -0.48503E-03 11760   0.504E-01    0.188E-01
DAV:   7    -0.191115002087E+03   -0.18356E-03   -0.17736E-03 12000   0.296E-01    0.213E-01
DAV:   8    -0.191114449443E+03    0.55264E-03   -0.75304E-04  9960   0.224E-01    0.485E-02
DAV:   9    -0.191114442135E+03    0.73089E-05   -0.96995E-05  5800   0.591E-02
  32 F= -.19111444E+03 E0= -.19102721E+03  d E =0.307903E-01
       N       E                     dE             d eps       ncg     rms          rms(c)
DAV:   1    -0.191132627105E+03   -0.18178E-01   -0.23818E+00  8160   0.325E+00    0.367E-01
DAV:   2    -0.191141735359E+03   -0.91083E-02   -0.66322E-02 13600   0.105E+00    0.732E-01
DAV:   3    -0.191136221927E+03    0.55134E-02   -0.20620E-02 12320   0.104E+00    0.449E-01
DAV:   4    -0.191134254185E+03    0.19677E-02   -0.50840E-03 11560   0.488E-01    0.162E-01
DAV:   5    -0.191133771212E+03    0.48297E-03   -0.10817E-03 11080   0.158E-01    0.790E-02
DAV:   6    -0.191134239788E+03   -0.46858E-03   -0.10106E-03 10840   0.241E-01    0.212E-01
DAV:   7    -0.191133766803E+03    0.47299E-03   -0.69187E-04  8680   0.208E-01    0.511E-02
DAV:   8    -0.191133758187E+03    0.86162E-05   -0.79425E-05  5640   0.659E-02
  33 F= -.19113376E+03 E0= -.19104465E+03  d E =-.193161E-01
       N       E                     dE             d eps       ncg     rms          rms(c)
DAV:   1    -0.191137170820E+03   -0.34040E-02   -0.90452E-02  8160   0.641E-01    0.818E-02
DAV:   2    -0.191137537348E+03   -0.36653E-03   -0.34618E-03 13600   0.200E-01    0.121E-01
DAV:   3    -0.191137340298E+03    0.19705E-03   -0.88604E-04 10840   0.196E-01    0.941E-02
DAV:   4    -0.191137264665E+03    0.75633E-04   -0.23466E-04  7680   0.117E-01
  34 F= -.19113726E+03 E0= -.19104766E+03  d E =-.350648E-02
       N       E                     dE             d eps       ncg     rms          rms(c)
DAV:   1    -0.191141142629E+03   -0.38023E-02   -0.45953E-01  8160   0.142E+00    0.152E-01
DAV:   2    -0.191143307948E+03   -0.21653E-02   -0.10652E-02 13600   0.558E-01    0.412E-01
DAV:   3    -0.191141485974E+03    0.18220E-02   -0.34280E-03 11760   0.469E-01    0.108E-01
DAV:   4    -0.191141535799E+03   -0.49824E-04   -0.53695E-04  8440   0.162E-01
  35 F= -.19114154E+03 E0= -.19105160E+03  d E =-.427113E-02
       N       E                     dE             d eps       ncg     rms          rms(c)
DAV:   1    -0.191154186435E+03   -0.12700E-01   -0.95886E-01  8160   0.210E+00    0.266E-01
DAV:   2    -0.191157215690E+03   -0.30293E-02   -0.30412E-02 13320   0.565E-01    0.384E-01
DAV:   3    -0.191155681836E+03    0.15339E-02   -0.90557E-03 12320   0.621E-01    0.357E-01
DAV:   4    -0.191154543165E+03    0.11387E-02   -0.29316E-03 11760   0.394E-01    0.133E-01
DAV:   5    -0.191154315825E+03    0.22734E-03   -0.71893E-04 10040   0.166E-01    0.101E-01
DAV:   6    -0.191154396255E+03   -0.80430E-04   -0.66822E-04  9640   0.193E-01
  36 F= -.19115440E+03 E0= -.19106277E+03  d E =-.128605E-01
       N       E                     dE             d eps       ncg     rms          rms(c)
DAV:   1    -0.191153810193E+03    0.50563E-03   -0.35285E-01  8160   0.127E+00    0.156E-01
DAV:   2    -0.191154809805E+03   -0.99961E-03   -0.10213E-02 12840   0.416E-01    0.276E-01
DAV:   3    -0.191154262333E+03    0.54747E-03   -0.31495E-03 12200   0.406E-01    0.205E-01
DAV:   4    -0.191153901422E+03    0.36091E-03   -0.10741E-03  9680   0.227E-01    0.927E-02
DAV:   5    -0.191153858048E+03    0.43374E-04   -0.41884E-04  8080   0.133E-01
  37 F= -.19115386E+03 E0= -.19106262E+03  d E =0.538207E-03
       N       E                     dE             d eps       ncg     rms          rms(c)
DAV:   1    -0.191171371451E+03   -0.17470E-01   -0.14969E+00  8160   0.259E+00    0.316E-01
DAV:   2    -0.191178948360E+03   -0.75769E-02   -0.47794E-02 13600   0.904E-01    0.695E-01
DAV:   3    -0.191173849085E+03    0.50993E-02   -0.17621E-02 12360   0.966E-01    0.388E-01
DAV:   4    -0.191172286399E+03    0.15627E-02   -0.37710E-03 11400   0.404E-01    0.125E-01
DAV:   5    -0.191172068867E+03    0.21753E-03   -0.81158E-04 11080   0.151E-01    0.103E-01
DAV:   6    -0.191172210258E+03   -0.14139E-03   -0.76151E-04  9760   0.212E-01    0.151E-01
DAV:   7    -0.191171989593E+03    0.22067E-03   -0.39467E-04  8600   0.145E-01    0.341E-02
DAV:   8    -0.191171996664E+03   -0.70712E-05   -0.68214E-05  5840   0.669E-02
  38 F= -.19117200E+03 E0= -.19107881E+03  d E =-.181386E-01
       N       E                     dE             d eps       ncg     rms          rms(c)
DAV:   1    -0.191164749891E+03    0.72397E-02   -0.31790E-01  8160   0.121E+00    0.185E-01
DAV:   2    -0.191165831544E+03   -0.10817E-02   -0.11757E-02 12840   0.452E-01    0.313E-01
DAV:   3    -0.191165004223E+03    0.82732E-03   -0.41411E-03 11960   0.482E-01    0.231E-01
DAV:   4    -0.191164503905E+03    0.50032E-03   -0.14801E-03 10280   0.272E-01    0.110E-01
DAV:   5    -0.191164478681E+03    0.25224E-04   -0.71597E-04  9640   0.177E-01
  39 F= -.19116448E+03 E0= -.19107236E+03  d E =0.751798E-02
       N       E                     dE             d eps       ncg     rms          rms(c)
DAV:   1    -0.191172807982E+03   -0.83041E-02   -0.79378E-01  8160   0.188E+00    0.186E-01
DAV:   2    -0.191175493244E+03   -0.26853E-02   -0.19834E-02 13520   0.619E-01    0.405E-01
DAV:   3    -0.191173954686E+03    0.15386E-02   -0.48457E-03 12400   0.525E-01    0.185E-01
DAV:   4    -0.191173729954E+03    0.22473E-03   -0.10797E-03  9880   0.215E-01    0.112E-01
DAV:   5    -0.191173675656E+03    0.54298E-04   -0.53553E-04  9000   0.175E-01
  40 F= -.19117368E+03 E0= -.19108092E+03  d E =-.919697E-02
       N       E                     dE             d eps       ncg     rms          rms(c)
DAV:   1    -0.191176845314E+03   -0.31154E-02   -0.77750E-01  8160   0.185E+00    0.222E-01
DAV:   2    -0.191183464521E+03   -0.66192E-02   -0.27105E-02 13560   0.837E-01    0.729E-01
DAV:   3    -0.191177696246E+03    0.57683E-02   -0.10207E-02 11440   0.768E-01    0.159E-01
DAV:   4    -0.191177562680E+03    0.13357E-03   -0.11171E-03 10160   0.181E-01    0.115E-01
DAV:   5    -0.191177465139E+03    0.97541E-04   -0.58594E-04 10800   0.176E-01
  41 F= -.19117747E+03 E0= -.19108395E+03  d E =-.378948E-02
       N       E                     dE             d eps       ncg     rms          rms(c)
DAV:   1    -0.191202240980E+03   -0.24678E-01   -0.21356E+00  8160   0.314E+00    0.443E-01
DAV:   2    -0.191213339023E+03   -0.11098E-01   -0.74870E-02 13520   0.128E+00    0.978E-01
DAV:   3    -0.191204254717E+03    0.90843E-02   -0.30401E-02 12200   0.133E+00    0.475E-01
DAV:   4    -0.191201934802E+03    0.23199E-02   -0.67112E-03 11680   0.525E-01    0.221E-01
DAV:   5    -0.191201785114E+03    0.14969E-03   -0.31832E-03 11920   0.367E-01    0.279E-01
DAV:   6    -0.191201068711E+03    0.71640E-03   -0.22306E-03 11200   0.340E-01    0.120E-01
DAV:   7    -0.191201034952E+03    0.33759E-04   -0.76275E-04  9600   0.179E-01
  42 F= -.19120103E+03 E0= -.19110510E+03  d E =-.235698E-01
       N       E                     dE             d eps       ncg     rms          rms(c)
DAV:   1    -0.191212647678E+03   -0.11579E-01   -0.46930E-01  8160   0.145E+00    0.190E-01
DAV:   2    -0.191216349071E+03   -0.37014E-02   -0.17061E-02 12840   0.666E-01    0.535E-01
DAV:   3    -0.191213176330E+03    0.31727E-02   -0.69804E-03 12240   0.633E-01    0.172E-01
DAV:   4    -0.191212892616E+03    0.28371E-03   -0.99489E-04  9760   0.185E-01    0.759E-02
DAV:   5    -0.191212865889E+03    0.26727E-04   -0.34253E-04  9120   0.121E-01
  43 F= -.19121287E+03 E0= -.19111628E+03  d E =-.118309E-01
       N       E                     dE             d eps       ncg     rms          rms(c)
DAV:   1    -0.191228089085E+03   -0.15196E-01   -0.81807E-01  8160   0.191E+00    0.226E-01
DAV:   2    -0.191232492327E+03   -0.44032E-02   -0.23531E-02 13600   0.782E-01    0.580E-01
DAV:   3    -0.191228870366E+03    0.36220E-02   -0.83330E-03 12240   0.690E-01    0.192E-01
DAV:   4    -0.191228621966E+03    0.24840E-03   -0.13849E-03 10200   0.227E-01    0.117E-01
DAV:   5    -0.191228571267E+03    0.50698E-04   -0.79259E-04 11120   0.202E-01
  44 F= -.19122857E+03 E0= -.19113123E+03  d E =-.157054E-01
       N       E                     dE             d eps       ncg     rms          rms(c)
DAV:   1    -0.191234026192E+03   -0.54042E-02   -0.10247E-01  8240   0.700E-01    0.962E-02
DAV:   2    -0.191235028072E+03   -0.10019E-02   -0.38789E-03 13600   0.337E-01    0.289E-01
DAV:   3    -0.191234102954E+03    0.92512E-03   -0.15745E-03 10320   0.308E-01    0.630E-02
DAV:   4    -0.191234127421E+03   -0.24467E-04   -0.15435E-04  5880   0.930E-02
  45 F= -.19123413E+03 E0= -.19113650E+03  d E =-.555615E-02
       N       E                     dE             d eps       ncg     rms          rms(c)
DAV:   1    -0.191255291640E+03   -0.21189E-01   -0.13952E+00  8160   0.248E+00    0.294E-01
DAV:   2    -0.191263509313E+03   -0.82177E-02   -0.38671E-02 13560   0.100E+00    0.810E-01
DAV:   3    -0.191256514944E+03    0.69944E-02   -0.16107E-02 11920   0.967E-01    0.245E-01
DAV:   4    -0.191256055240E+03    0.45970E-03   -0.22495E-03 11080   0.278E-01    0.147E-01
DAV:   5    -0.191255978786E+03    0.76454E-04   -0.11454E-03 10920   0.239E-01    0.165E-01
DAV:   6    -0.191255718450E+03    0.26034E-03   -0.69559E-04  9120   0.197E-01    0.629E-02
DAV:   7    -0.191255705662E+03    0.12788E-04   -0.15840E-04  5720   0.789E-02
  46 F= -.19125571E+03 E0= -.19115743E+03  d E =-.215782E-01
       N       E                     dE             d eps       ncg     rms          rms(c)
DAV:   1    -0.191270552099E+03   -0.14834E-01   -0.46164E-01  8160   0.157E+00    0.343E-01
DAV:   2    -0.191269859272E+03    0.69283E-03   -0.22432E-02 12000   0.640E-01    0.438E-01
DAV:   3    -0.191269068183E+03    0.79109E-03   -0.97242E-03 11480   0.759E-01    0.390E-01
DAV:   4    -0.191267342912E+03    0.17253E-02   -0.46427E-03 11640   0.467E-01    0.198E-01
DAV:   5    -0.191267431647E+03   -0.88735E-04   -0.29546E-03 10360   0.363E-01    0.265E-01
DAV:   6    -0.191266695274E+03    0.73637E-03   -0.15427E-03 10000   0.287E-01    0.683E-02
DAV:   7    -0.191266638848E+03    0.56425E-04   -0.18818E-04  6320   0.741E-02
  47 F= -.19126664E+03 E0= -.19116741E+03  d E =-.109332E-01
       N       E                     dE             d eps       ncg     rms          rms(c)
DAV:   1    -0.191240377076E+03    0.26318E-01   -0.22071E+00  8160   0.312E+00    0.345E-01
DAV:   2    -0.191251761084E+03   -0.11384E-01   -0.62900E-02 13600   0.131E+00    0.885E-01
DAV:   3    -0.191242814157E+03    0.89469E-02   -0.17767E-02 11560   0.104E+00    0.262E-01
DAV:   4    -0.191242589941E+03    0.22422E-03   -0.30708E-03 11120   0.359E-01    0.223E-01
DAV:   5    -0.191242279334E+03    0.31061E-03   -0.19638E-03 11240   0.325E-01    0.185E-01
DAV:   6    -0.191241985699E+03    0.29364E-03   -0.10106E-03 10440   0.208E-01    0.766E-02
DAV:   7    -0.191242054010E+03   -0.68312E-04   -0.47259E-04  8800   0.145E-01
  48 F= -.19124205E+03 E0= -.19114328E+03  d E =0.245848E-01
       N       E                     dE             d eps       ncg     rms          rms(c)
DAV:   1    -0.191264519210E+03   -0.22534E-01   -0.16462E+00  8160   0.271E+00    0.295E-01
DAV:   2    -0.191272120381E+03   -0.76012E-02   -0.49837E-02 13520   0.989E-01    0.699E-01
DAV:   3    -0.191267271987E+03    0.48484E-02   -0.15540E-02 12320   0.924E-01    0.311E-01
DAV:   4    -0.191266255784E+03    0.10162E-02   -0.26458E-03 11120   0.307E-01    0.119E-01
DAV:   5    -0.191265976693E+03    0.27909E-03   -0.73881E-04 11080   0.107E-01    0.620E-02
DAV:   6    -0.191266259098E+03   -0.28241E-03   -0.77501E-04 10520   0.186E-01    0.168E-01
DAV:   7    -0.191265953396E+03    0.30570E-03   -0.46684E-04  8440   0.165E-01    0.220E-02
DAV:   8    -0.191265960555E+03   -0.71590E-05   -0.27148E-05  5640   0.255E-02
  49 F= -.19126596E+03 E0= -.19116635E+03  d E =-.239065E-01
       N       E                     dE             d eps       ncg     rms          rms(c)
DAV:   1    -0.191280533138E+03   -0.14580E-01   -0.64209E-01  8160   0.169E+00    0.182E-01
DAV:   2    -0.191283426084E+03   -0.28929E-02   -0.16912E-02 13560   0.597E-01    0.460E-01
DAV:   3    -0.191281222382E+03    0.22037E-02   -0.58974E-03 11960   0.568E-01    0.162E-01
DAV:   4    -0.191281027782E+03    0.19460E-03   -0.87472E-04  9560   0.170E-01    0.863E-02
DAV:   5    -0.191280977159E+03    0.50623E-04   -0.38436E-04  9120   0.128E-01
  50 F= -.19128098E+03 E0= -.19118138E+03  d E =-.150166E-01
       N       E                     dE             d eps       ncg     rms          rms(c)
DAV:   1    -0.191297337404E+03   -0.16310E-01   -0.10648E+00  8160   0.218E+00    0.220E-01
DAV:   2    -0.191300565318E+03   -0.32279E-02   -0.27609E-02 13560   0.638E-01    0.421E-01
DAV:   3    -0.191299109160E+03    0.14562E-02   -0.67613E-03 11760   0.617E-01    0.254E-01
DAV:   4    -0.191298443862E+03    0.66530E-03   -0.14479E-03 10200   0.241E-01    0.929E-02
DAV:   5    -0.191298359878E+03    0.83984E-04   -0.48161E-04 10080   0.111E-01
  51 F= -.19129836E+03 E0= -.19119846E+03  d E =-.173827E-01
       N       E                     dE             d eps       ncg     rms          rms(c)
DAV:   1    -0.191320636159E+03   -0.22192E-01   -0.18295E+00  8160   0.285E+00    0.390E-01
DAV:   2    -0.191341054645E+03   -0.20418E-01   -0.71966E-02 13480   0.170E+00    0.135E+00
DAV:   3    -0.191321347476E+03    0.19707E-01   -0.35131E-02 11960   0.142E+00    0.216E-01
DAV:   4    -0.191321638033E+03   -0.29056E-03   -0.31022E-03 10920   0.370E-01    0.271E-01
DAV:   5    -0.191320988160E+03    0.64987E-03   -0.22468E-03 11520   0.360E-01    0.166E-01
DAV:   6    -0.191320728275E+03    0.25988E-03   -0.10137E-03  9760   0.188E-01    0.687E-02
DAV:   7    -0.191320728537E+03   -0.26114E-06   -0.38443E-04  7920   0.119E-01
  52 F= -.19132073E+03 E0= -.19122106E+03  d E =-.223687E-01
       N       E                     dE             d eps       ncg     rms          rms(c)
DAV:   1    -0.191361949693E+03   -0.41221E-01   -0.30902E+00  8160   0.372E+00    0.393E-01
DAV:   2    -0.191373379994E+03   -0.11430E-01   -0.85245E-02 13560   0.116E+00    0.833E-01
DAV:   3    -0.191366911615E+03    0.64684E-02   -0.25555E-02 12080   0.118E+00    0.429E-01
DAV:   4    -0.191365039272E+03    0.18723E-02   -0.45834E-03 10960   0.413E-01    0.161E-01
DAV:   5    -0.191364534575E+03    0.50470E-03   -0.13453E-03 11040   0.141E-01    0.841E-02
DAV:   6    -0.191364687339E+03   -0.15276E-03   -0.78921E-04 10400   0.151E-01    0.127E-01
DAV:   7    -0.191364501858E+03    0.18548E-03   -0.34109E-04  9000   0.144E-01    0.350E-02
DAV:   8    -0.191364502316E+03   -0.45746E-06   -0.61769E-05  5680   0.505E-02
  53 F= -.19136450E+03 E0= -.19126577E+03  d E =-.437738E-01
       N       E                     dE             d eps       ncg     rms          rms(c)
DAV:   1    -0.191353116836E+03    0.11385E-01   -0.56557E-01  8160   0.159E+00    0.171E-01
DAV:   2    -0.191354217781E+03   -0.11009E-02   -0.13143E-02 13520   0.399E-01    0.266E-01
DAV:   3    -0.191353872495E+03    0.34529E-03   -0.33419E-03 11320   0.435E-01    0.220E-01
DAV:   4    -0.191353325647E+03    0.54685E-03   -0.96574E-04  9800   0.212E-01    0.698E-02
DAV:   5    -0.191353384397E+03   -0.58750E-04   -0.45445E-04  8560   0.146E-01
  54 F= -.19135338E+03 E0= -.19125460E+03  d E =0.111179E-01
       N       E                     dE             d eps       ncg     rms          rms(c)
DAV:   1    -0.191417551515E+03   -0.64226E-01   -0.64347E+00  8160   0.538E+00    0.575E-01
DAV:   2    -0.191436544658E+03   -0.18993E-01   -0.17733E-01 13600   0.165E+00    0.105E+00
DAV:   3    -0.191427702645E+03    0.88420E-02   -0.46250E-02 11880   0.158E+00    0.636E-01
DAV:   4    -0.191423194133E+03    0.45085E-02   -0.10759E-02 12280   0.679E-01    0.271E-01
DAV:   5    -0.191422940698E+03    0.25344E-03   -0.51466E-03 11200   0.469E-01    0.328E-01
DAV:   6    -0.191422210358E+03    0.73034E-03   -0.36595E-03 11600   0.444E-01    0.178E-01
DAV:   7    -0.191421744497E+03    0.46586E-03   -0.10831E-03 10160   0.185E-01    0.337E-02
DAV:   8    -0.191421727443E+03    0.17053E-04   -0.10824E-04  7320   0.390E-02
  55 F= -.19142173E+03 E0= -.19132531E+03  d E =-.683430E-01
       N       E                     dE             d eps       ncg     rms          rms(c)
DAV:   1    -0.191426806854E+03   -0.50624E-02   -0.15174E-01  8160   0.827E-01    0.105E-01
DAV:   2    -0.191428133612E+03   -0.13268E-02   -0.57542E-03 13600   0.453E-01    0.330E-01
DAV:   3    -0.191426924789E+03    0.12088E-02   -0.22499E-03 11120   0.361E-01    0.640E-02
DAV:   4    -0.191426927743E+03   -0.29545E-05   -0.19372E-04  6360   0.960E-02
  56 F= -.19142693E+03 E0= -.19133087E+03  d E =-.520030E-02
       N       E                     dE             d eps       ncg     rms          rms(c)
DAV:   1    -0.191400317593E+03    0.26607E-01   -0.26045E+00  8160   0.342E+00    0.386E-01
DAV:   2    -0.191413631578E+03   -0.13314E-01   -0.79972E-02 13520   0.150E+00    0.969E-01
DAV:   3    -0.191402510279E+03    0.11121E-01   -0.20439E-02 12200   0.109E+00    0.221E-01
DAV:   4    -0.191402215171E+03    0.29511E-03   -0.27327E-03 11000   0.295E-01    0.186E-01
DAV:   5    -0.191402179899E+03    0.35272E-04   -0.24305E-03 11160   0.344E-01    0.228E-01
DAV:   6    -0.191401753277E+03    0.42662E-03   -0.15358E-03 10120   0.280E-01    0.941E-02
DAV:   7    -0.191401651953E+03    0.10132E-03   -0.36028E-04  7760   0.103E-01    0.407E-02
DAV:   8    -0.191401648029E+03    0.39248E-05   -0.99014E-05  6520   0.731E-02
  57 F= -.19140165E+03 E0= -.19130418E+03  d E =0.252797E-01
       N       E                     dE             d eps       ncg     rms          rms(c)
DAV:   1    -0.191478797790E+03   -0.77146E-01   -0.85914E+00  8160   0.621E+00    0.613E-01
DAV:   2    -0.191502717361E+03   -0.23920E-01   -0.22678E-01 13320   0.177E+00    0.110E+00
DAV:   3    -0.191493255118E+03    0.94622E-02   -0.52498E-02 11800   0.168E+00    0.669E-01
DAV:   4    -0.191488243382E+03    0.50117E-02   -0.10440E-02 12240   0.681E-01    0.270E-01
DAV:   5    -0.191488037244E+03    0.20614E-03   -0.51219E-03 12560   0.457E-01    0.327E-01
DAV:   6    -0.191487618842E+03    0.41840E-03   -0.42059E-03 11680   0.488E-01    0.224E-01
DAV:   7    -0.191486840671E+03    0.77817E-03   -0.13677E-03 10840   0.229E-01    0.341E-02
DAV:   8    -0.191486860406E+03   -0.19735E-04   -0.13192E-04  6320   0.543E-02
  58 F= -.19148686E+03 E0= -.19139375E+03  d E =-.852124E-01
       N       E                     dE             d eps       ncg     rms          rms(c)
DAV:   1    -0.191419597560E+03    0.67243E-01   -0.44212E+00  8160   0.445E+00    0.430E-01
DAV:   2    -0.191430807487E+03   -0.11210E-01   -0.11430E-01 13200   0.122E+00    0.701E-01
DAV:   3    -0.191427301595E+03    0.35059E-02   -0.22697E-02 11880   0.113E+00    0.512E-01
DAV:   4    -0.191424436417E+03    0.28652E-02   -0.57964E-03 12240   0.518E-01    0.177E-01
DAV:   5    -0.191424453564E+03   -0.17147E-04   -0.23766E-03 12400   0.304E-01    0.221E-01
DAV:   6    -0.191424318913E+03    0.13465E-03   -0.20418E-03 11720   0.339E-01    0.166E-01
DAV:   7    -0.191423894208E+03    0.42471E-03   -0.67408E-04  9360   0.167E-01    0.227E-02
DAV:   8    -0.191423912153E+03   -0.17944E-04   -0.84379E-05  6560   0.408E-02
  59 F= -.19142391E+03 E0= -.19132757E+03  d E =0.629483E-01
       N       E                     dE             d eps       ncg     rms          rms(c)
DAV:   1    -0.191419736766E+03    0.41574E-02   -0.74197E-01  8160   0.182E+00    0.159E-01
DAV:   2    -0.191421207332E+03   -0.14706E-02   -0.20013E-02 12240   0.387E-01    0.143E-01
DAV:   3    -0.191421543180E+03   -0.33585E-03   -0.21682E-03 12440   0.324E-01    0.244E-01
DAV:   4    -0.191420877535E+03    0.66565E-03   -0.10786E-03 10160   0.245E-01    0.622E-02
DAV:   5    -0.191421005402E+03   -0.12787E-03   -0.48418E-04  8680   0.134E-01    0.110E-01
DAV:   6    -0.191420875609E+03    0.12979E-03   -0.36588E-04  8920   0.147E-01    0.495E-02
DAV:   7    -0.191420851805E+03    0.23803E-04   -0.75928E-05  5840   0.596E-02
  60 F= -.19142085E+03 E0= -.19132433E+03  d E =0.306035E-02
       N       E                     dE             d eps       ncg     rms          rms(c)
DAV:   1    -0.190913488405E+03    0.50739E+00   -0.18726E+02  8160   0.291E+01    0.307E+00
DAV:   2    -0.191614312421E+03   -0.70082E+00   -0.58613E+00 13440   0.928E+00    0.561E+00
DAV:   3    -0.191300563703E+03    0.31375E+00   -0.11976E+00 11680   0.827E+00    0.345E+00
DAV:   4    -0.191190094371E+03    0.11047E+00   -0.26004E-01 12360   0.361E+00    0.165E+00
DAV:   5    -0.191174007825E+03    0.16087E-01   -0.13027E-01 12240   0.263E+00    0.156E+00
DAV:   6    -0.191160253817E+03    0.13754E-01   -0.83781E-02 12720   0.207E+00    0.102E+00
DAV:   7    -0.191157866276E+03    0.23875E-02   -0.50413E-02 12360   0.155E+00    0.112E+00
DAV:   8    -0.191144950224E+03    0.12916E-01   -0.22443E-02 12120   0.109E+00    0.195E-01
DAV:   9    -0.191144673627E+03    0.27660E-03   -0.23061E-03 10880   0.197E-01    0.101E-01
DAV:  10    -0.191144562859E+03    0.11077E-03   -0.78803E-04 11480   0.981E-02    0.701E-02
DAV:  11    -0.191144499376E+03    0.63483E-04   -0.32008E-04  8280   0.597E-02
  61 F= -.19114450E+03 E0= -.19104984E+03  d E =0.276352E+00
       N       E                     dE             d eps       ncg     rms          rms(c)
DAV:   1    -0.191127895332E+03    0.16668E-01   -0.12623E+01  8160   0.743E+00    0.854E-01
DAV:   2    -0.191210272865E+03   -0.82378E-01   -0.35937E-01 13600   0.323E+00    0.252E+00
DAV:   3    -0.191141673321E+03    0.68600E-01   -0.14838E-01 12160   0.295E+00    0.728E-01
DAV:   4    -0.191136612884E+03    0.50604E-02   -0.16887E-02 11400   0.709E-01    0.390E-01
DAV:   5    -0.191135270371E+03    0.13425E-02   -0.68305E-03 12680   0.555E-01    0.379E-01
DAV:   6    -0.191134546744E+03    0.72363E-03   -0.54378E-03 10680   0.574E-01    0.281E-01
DAV:   7    -0.191134386051E+03    0.16069E-03   -0.30041E-03 11400   0.381E-01    0.256E-01
DAV:   8    -0.191133712178E+03    0.67387E-03   -0.12986E-03  9960   0.273E-01    0.730E-02
DAV:   9    -0.191133671049E+03    0.41128E-04   -0.14076E-04  5800   0.702E-02
  62 F= -.19113367E+03 E0= -.19104011E+03  d E =0.108283E-01
       N       E                     dE             d eps       ncg     rms          rms(c)
DAV:   1    -0.191152057710E+03   -0.18346E-01   -0.38767E+00  8160   0.414E+00    0.457E-01
DAV:   2    -0.191172410089E+03   -0.20352E-01   -0.11292E-01 13600   0.162E+00    0.120E+00
DAV:   3    -0.191157609538E+03    0.14801E-01   -0.34884E-02 12200   0.143E+00    0.391E-01
DAV:   4    -0.191156109041E+03    0.15005E-02   -0.42967E-03 11360   0.368E-01    0.192E-01
DAV:   5    -0.191155473940E+03    0.63510E-03   -0.21091E-03 11360   0.186E-01    0.121E-01
DAV:   6    -0.191155995580E+03   -0.52164E-03   -0.19219E-03 11760   0.297E-01    0.257E-01
DAV:   7    -0.191155333147E+03    0.66243E-03   -0.13278E-03  9920   0.272E-01    0.757E-02
DAV:   8    -0.191155279016E+03    0.54131E-04   -0.13718E-04  5600   0.799E-02
  63 F= -.19115528E+03 E0= -.19106011E+03  d E =-.216080E-01
       N       E                     dE             d eps       ncg     rms          rms(c)
DAV:   1    -0.191170365650E+03   -0.15033E-01   -0.10330E+00  8160   0.220E+00    0.306E-01
DAV:   2    -0.191174204362E+03   -0.38387E-02   -0.37183E-02 13440   0.759E-01    0.531E-01
DAV:   3    -0.191171850738E+03    0.23536E-02   -0.11757E-02 12360   0.815E-01    0.361E-01
DAV:   4    -0.191170646381E+03    0.12044E-02   -0.33886E-03 11760   0.428E-01    0.170E-01
DAV:   5    -0.191170388791E+03    0.25759E-03   -0.14325E-03 10200   0.232E-01    0.166E-01
DAV:   6    -0.191170214068E+03    0.17472E-03   -0.98182E-04 10160   0.233E-01    0.109E-01
DAV:   7    -0.191170149782E+03    0.64286E-04   -0.44155E-04  8360   0.142E-01
  64 F= -.19117015E+03 E0= -.19107378E+03  d E =-.148708E-01
       N       E                     dE             d eps       ncg     rms          rms(c)
DAV:   1    -0.191179837897E+03   -0.96238E-02   -0.30970E-01  8160   0.120E+00    0.146E-01
DAV:   2    -0.191180926685E+03   -0.10888E-02   -0.89127E-03 12720   0.373E-01    0.271E-01
DAV:   3    -0.191180216161E+03    0.71052E-03   -0.26387E-03 12080   0.363E-01    0.150E-01
DAV:   4    -0.191180094649E+03    0.12151E-03   -0.77776E-04  9440   0.187E-01    0.962E-02
DAV:   5    -0.191180028504E+03    0.66145E-04   -0.35556E-04  8880   0.143E-01
  65 F= -.19118003E+03 E0= -.19108313E+03  d E =-.987872E-02
       N       E                     dE             d eps       ncg     rms          rms(c)
DAV:   1    -0.191178015290E+03    0.20794E-02   -0.54376E-02  8160   0.510E-01    0.115E-01
DAV:   2    -0.191180498510E+03   -0.24832E-02   -0.59629E-03 12640   0.558E-01    0.486E-01
DAV:   3    -0.191177935794E+03    0.25627E-02   -0.34685E-03 10080   0.468E-01    0.684E-02
DAV:   4    -0.191177973929E+03   -0.38136E-04   -0.25596E-04  7400   0.112E-01
  66 F= -.19117797E+03 E0= -.19108123E+03  d E =0.205457E-02
       N       E                     dE             d eps       ncg     rms          rms(c)
DAV:   1    -0.191202994821E+03   -0.25059E-01   -0.17577E+00  8160   0.287E+00    0.345E-01
DAV:   2    -0.191207920123E+03   -0.49253E-02   -0.47906E-02 13360   0.932E-01    0.612E-01
DAV:   3    -0.191204824968E+03    0.30952E-02   -0.12296E-02 11520   0.869E-01    0.342E-01
DAV:   4    -0.191203878912E+03    0.94606E-03   -0.37460E-03 12160   0.439E-01    0.215E-01
DAV:   5    -0.191203648923E+03    0.22999E-03   -0.22406E-03 11320   0.328E-01    0.219E-01
DAV:   6    -0.191203267215E+03    0.38171E-03   -0.15192E-03 10080   0.277E-01    0.111E-01
DAV:   7    -0.191203223165E+03    0.44049E-04   -0.56905E-04  8160   0.162E-01
  67 F= -.19120322E+03 E0= -.19110529E+03  d E =-.252492E-01
       N       E                     dE             d eps       ncg     rms          rms(c)
DAV:   1    -0.191205839264E+03   -0.25720E-02   -0.45960E-02  8160   0.503E-01    0.866E-02
DAV:   2    -0.191206426512E+03   -0.58725E-03   -0.26751E-03 12480   0.293E-01    0.251E-01
DAV:   3    -0.191205783928E+03    0.64258E-03   -0.13677E-03  9720   0.270E-01    0.645E-02
DAV:   4    -0.191205763790E+03    0.20138E-04   -0.15485E-04  6000   0.781E-02
  68 F= -.19120576E+03 E0= -.19110759E+03  d E =-.254062E-02
       N       E                     dE             d eps       ncg     rms          rms(c)
DAV:   1    -0.191215148786E+03   -0.93649E-02   -0.13870E+00  8160   0.259E+00    0.535E-01
DAV:   2    -0.191240120914E+03   -0.24972E-01   -0.94657E-02 12360   0.202E+00    0.158E+00
DAV:   3    -0.191211203806E+03    0.28917E-01   -0.45030E-02 11880   0.168E+00    0.304E-01
DAV:   4    -0.191211008663E+03    0.19514E-03   -0.63226E-03 10880   0.546E-01    0.357E-01
DAV:   5    -0.191210357982E+03    0.65068E-03   -0.54859E-03 10440   0.584E-01    0.309E-01
DAV:   6    -0.191209208076E+03    0.11499E-02   -0.24271E-03 10960   0.318E-01    0.104E-01
DAV:   7    -0.191209240172E+03   -0.32096E-04   -0.71613E-04  9400   0.192E-01
  69 F= -.19120924E+03 E0= -.19111209E+03  d E =-.347638E-02
       N       E                     dE             d eps       ncg     rms          rms(c)
DAV:   1    -0.191208842713E+03    0.36536E-03   -0.20705E-03 10400   0.150E-01    0.226E-02
DAV:   2    -0.191208916981E+03   -0.74269E-04   -0.14969E-04  6160   0.816E-02
  70 F= -.19120892E+03 E0= -.19111175E+03  d E =0.323190E-03
       N       E                     dE             d eps       ncg     rms          rms(c)
DAV:   1    -0.191233244322E+03   -0.24402E-01   -0.17064E+00  8160   0.286E+00    0.426E-01
DAV:   2    -0.191250150418E+03   -0.16906E-01   -0.79929E-02 13560   0.159E+00    0.124E+00
DAV:   3    -0.191233941913E+03    0.16209E-01   -0.32938E-02 12200   0.136E+00    0.281E-01
DAV:   4    -0.191233363439E+03    0.57847E-03   -0.36733E-03 12240   0.355E-01    0.229E-01
DAV:   5    -0.191233464085E+03   -0.10065E-03   -0.33379E-03 11080   0.444E-01    0.298E-01
DAV:   6    -0.191232601072E+03    0.86301E-03   -0.20874E-03 11400   0.338E-01    0.999E-02
DAV:   7    -0.191232505594E+03    0.95478E-04   -0.59412E-04  9280   0.133E-01
  71 F= -.19123251E+03 E0= -.19113473E+03  d E =-.235886E-01
       N       E                     dE             d eps       ncg     rms          rms(c)
DAV:   1    -0.191262415855E+03   -0.29815E-01   -0.21351E+00  8160   0.314E+00    0.337E-01
DAV:   2    -0.191265848465E+03   -0.34326E-02   -0.50965E-02 13240   0.663E-01    0.373E-01
DAV:   3    -0.191265893618E+03   -0.45153E-04   -0.96585E-03 11800   0.734E-01    0.450E-01
DAV:   4    -0.191264086065E+03    0.18076E-02   -0.45621E-03 11480   0.523E-01    0.202E-01
DAV:   5    -0.191263705464E+03    0.38060E-03   -0.19996E-03 10160   0.292E-01    0.178E-01
DAV:   6    -0.191263633184E+03    0.72280E-04   -0.14365E-03 10080   0.279E-01    0.143E-01
DAV:   7    -0.191263403490E+03    0.22969E-03   -0.53812E-04  8160   0.154E-01    0.526E-02
DAV:   8    -0.191263397949E+03    0.55411E-05   -0.13534E-04  5440   0.921E-02
  72 F= -.19126340E+03 E0= -.19116512E+03  d E =-.308924E-01
       N       E                     dE             d eps       ncg     rms          rms(c)
DAV:   1    -0.191260574571E+03    0.28289E-02   -0.23510E-02  8160   0.347E-01    0.745E-02
DAV:   2    -0.191260639902E+03   -0.65332E-04   -0.12380E-03 11760   0.178E-01    0.129E-01
DAV:   3    -0.191260489542E+03    0.15036E-03   -0.50987E-04  8840   0.177E-01    0.702E-02
DAV:   4    -0.191260448992E+03    0.40549E-04   -0.19121E-04  5440   0.960E-02
  73 F= -.19126045E+03 E0= -.19116231E+03  d E =0.294896E-02
       N       E                     dE             d eps       ncg     rms          rms(c)
DAV:   1    -0.191241613614E+03    0.18876E-01   -0.75512E-01  8160   0.187E+00    0.225E-01
DAV:   2    -0.191243028907E+03   -0.14153E-02   -0.21344E-02 12560   0.448E-01    0.276E-01
DAV:   3    -0.191242967723E+03    0.61183E-04   -0.52160E-03 12120   0.541E-01    0.316E-01
DAV:   4    -0.191242014814E+03    0.95291E-03   -0.21336E-03 11200   0.341E-01    0.124E-01
DAV:   5    -0.191241933856E+03    0.80959E-04   -0.93874E-04  9520   0.207E-01
  74 F= -.19124193E+03 E0= -.19114413E+03  d E =0.185151E-01
       N       E                     dE             d eps       ncg     rms          rms(c)
DAV:   1    -0.191279643831E+03   -0.37629E-01   -0.26169E+00  8160   0.352E+00    0.448E-01
DAV:   2    -0.191283795804E+03   -0.41520E-02   -0.78069E-02 13600   0.100E+00    0.565E-01
DAV:   3    -0.191282347301E+03    0.14485E-02   -0.17004E-02 12000   0.972E-01    0.500E-01
DAV:   4    -0.191279857737E+03    0.24896E-02   -0.73880E-03 12000   0.629E-01    0.279E-01
DAV:   5    -0.191279359677E+03    0.49806E-03   -0.40361E-03 11240   0.421E-01    0.271E-01
DAV:   6    -0.191278838423E+03    0.52125E-03   -0.27292E-03 11160   0.381E-01    0.158E-01
DAV:   7    -0.191278546229E+03    0.29219E-03   -0.77419E-04  9400   0.170E-01    0.486E-02
DAV:   8    -0.191278552762E+03   -0.65329E-05   -0.17558E-04  6440   0.974E-02
  75 F= -.19127855E+03 E0= -.19118015E+03  d E =-.366189E-01
       N       E                     dE             d eps       ncg     rms          rms(c)
DAV:   1    -0.191290531513E+03   -0.11985E-01   -0.26981E-01  8160   0.111E+00    0.116E-01
DAV:   2    -0.191290969549E+03   -0.43804E-03   -0.66569E-03 12480   0.230E-01    0.118E-01
DAV:   3    -0.191291090506E+03   -0.12096E-03   -0.12211E-03 11040   0.253E-01    0.168E-01
DAV:   4    -0.191290820630E+03    0.26988E-03   -0.60837E-04  8320   0.188E-01    0.655E-02
DAV:   5    -0.191290806228E+03    0.14401E-04   -0.21324E-04  6200   0.104E-01
  76 F= -.19129081E+03 E0= -.19119248E+03  d E =-.122535E-01
       N       E                     dE             d eps       ncg     rms          rms(c)
DAV:   1    -0.191294862068E+03   -0.40414E-02   -0.10999E-01  8160   0.710E-01    0.150E-01
DAV:   2    -0.191298569370E+03   -0.37073E-02   -0.10692E-02 12200   0.718E-01    0.568E-01
DAV:   3    -0.191294793230E+03    0.37761E-02   -0.49302E-03 10480   0.549E-01    0.667E-02
DAV:   4    -0.191294897089E+03   -0.10386E-03   -0.35001E-04  8240   0.141E-01    0.104E-01
DAV:   5    -0.191294791548E+03    0.10554E-03   -0.25403E-04  8000   0.128E-01    0.489E-02
DAV:   6    -0.191294784941E+03    0.66070E-05   -0.10214E-04  5480   0.581E-02
  77 F= -.19129478E+03 E0= -.19119656E+03  d E =-.397871E-02
       N       E                     dE             d eps       ncg     rms          rms(c)
DAV:   1    -0.191330704213E+03   -0.35913E-01   -0.24159E+00  8160   0.334E+00    0.372E-01
DAV:   2    -0.191338336121E+03   -0.76319E-02   -0.72639E-02 13240   0.104E+00    0.686E-01
DAV:   3    -0.191334781134E+03    0.35550E-02   -0.19112E-02 11520   0.102E+00    0.407E-01
DAV:   4    -0.191332884313E+03    0.18968E-02   -0.35388E-03 11360   0.399E-01    0.150E-01
DAV:   5    -0.191332961810E+03   -0.77496E-04   -0.19205E-03 10920   0.282E-01    0.208E-01
DAV:   6    -0.191332739928E+03    0.22188E-03   -0.17907E-03 10120   0.319E-01    0.146E-01
DAV:   7    -0.191332482758E+03    0.25717E-03   -0.55431E-04  8280   0.160E-01    0.500E-02
DAV:   8    -0.191332468271E+03    0.14486E-04   -0.11213E-04  6000   0.802E-02
  78 F= -.19133247E+03 E0= -.19123490E+03  d E =-.376833E-01
       N       E                     dE             d eps       ncg     rms          rms(c)
DAV:   1    -0.191308617176E+03    0.23866E-01   -0.11092E+00  8160   0.224E+00    0.256E-01
DAV:   2    -0.191315293893E+03   -0.66767E-02   -0.38515E-02 13560   0.101E+00    0.696E-01
DAV:   3    -0.191310178287E+03    0.51156E-02   -0.11381E-02 11880   0.833E-01    0.202E-01
DAV:   4    -0.191309795561E+03    0.38273E-03   -0.11803E-03  9600   0.228E-01    0.129E-01
DAV:   5    -0.191309792102E+03    0.34589E-05   -0.10135E-03  9960   0.237E-01    0.153E-01
DAV:   6    -0.191309595411E+03    0.19669E-03   -0.74785E-04 10160   0.180E-01    0.676E-02
DAV:   7    -0.191309553932E+03    0.41478E-04   -0.23019E-04  5880   0.102E-01
  79 F= -.19130955E+03 E0= -.19121111E+03  d E =0.229143E-01
       N       E                     dE             d eps       ncg     rms          rms(c)
DAV:   1    -0.191351750472E+03   -0.42155E-01   -0.35911E+00  8160   0.404E+00    0.394E-01
DAV:   2    -0.191360266122E+03   -0.85156E-02   -0.93249E-02 12440   0.114E+00    0.590E-01
DAV:   3    -0.191358048541E+03    0.22176E-02   -0.15742E-02 12160   0.955E-01    0.441E-01
DAV:   4    -0.191356150890E+03    0.18977E-02   -0.45625E-03 11400   0.501E-01    0.213E-01
DAV:   5    -0.191356162624E+03   -0.11734E-04   -0.30191E-03 10840   0.394E-01    0.253E-01
DAV:   6    -0.191355703954E+03    0.45867E-03   -0.20460E-03 11800   0.320E-01    0.123E-01
DAV:   7    -0.191355470605E+03    0.23335E-03   -0.48979E-04  8480   0.122E-01    0.413E-02
DAV:   8    -0.191355474405E+03   -0.37999E-05   -0.11740E-04  6560   0.813E-02
  80 F= -.19135547E+03 E0= -.19125840E+03  d E =-.459205E-01
       N       E                     dE             d eps       ncg     rms          rms(c)
DAV:   1    -0.191359408883E+03   -0.39383E-02   -0.23885E-02  8160   0.341E-01    0.454E-02
DAV:   2    -0.191359494146E+03   -0.85264E-04   -0.85494E-04 12280   0.115E-01
  81 F= -.19135949E+03 E0= -.19126250E+03  d E =-.401974E-02
       N       E                     dE             d eps       ncg     rms          rms(c)
DAV:   1    -0.191343742163E+03    0.15667E-01   -0.70799E-01  8160   0.184E+00    0.271E-01
DAV:   2    -0.191347075295E+03   -0.33331E-02   -0.32247E-02 12720   0.767E-01    0.511E-01
DAV:   3    -0.191344627433E+03    0.24479E-02   -0.94078E-03 11960   0.746E-01    0.278E-01
DAV:   4    -0.191343778365E+03    0.84907E-03   -0.23898E-03 11200   0.323E-01    0.124E-01
DAV:   5    -0.191343612653E+03    0.16571E-03   -0.10558E-03  9520   0.183E-01    0.121E-01
DAV:   6    -0.191343545089E+03    0.67564E-04   -0.71639E-04  9600   0.196E-01
  82 F= -.19134355E+03 E0= -.19124651E+03  d E =0.159491E-01
       N       E                     dE             d eps       ncg     rms          rms(c)
DAV:   1    -0.191409600330E+03   -0.65988E-01   -0.61768E+00  8160   0.541E+00    0.693E-01
DAV:   2    -0.191419037284E+03   -0.94370E-02   -0.19085E-01 13560   0.154E+00    0.870E-01
DAV:   3    -0.191418013988E+03    0.10233E-02   -0.46736E-02 12040   0.167E+00    0.879E-01
DAV:   4    -0.191408712735E+03    0.93013E-02   -0.18036E-02 11800   0.983E-01    0.310E-01
DAV:   5    -0.191408788962E+03   -0.76226E-04   -0.80750E-03 11840   0.593E-01    0.412E-01
DAV:   6    -0.191407168565E+03    0.16204E-02   -0.50443E-03 11440   0.549E-01    0.184E-01
DAV:   7    -0.191406781201E+03    0.38736E-03   -0.11937E-03  9560   0.215E-01    0.761E-02
DAV:   8    -0.191406746873E+03    0.34328E-04   -0.36443E-04  9160   0.132E-01
  83 F= -.19140675E+03 E0= -.19131123E+03  d E =-.632018E-01
       N       E                     dE             d eps       ncg     rms          rms(c)
DAV:   1    -0.191425818453E+03   -0.19037E-01   -0.58722E-01  8160   0.164E+00    0.195E-01
DAV:   2    -0.191427736140E+03   -0.19177E-02   -0.19311E-02 13400   0.571E-01    0.339E-01
DAV:   3    -0.191426777150E+03    0.95899E-03   -0.45370E-03 12120   0.510E-01    0.200E-01
DAV:   4    -0.191426374347E+03    0.40280E-03   -0.10571E-03  9520   0.232E-01    0.985E-02
DAV:   5    -0.191426425363E+03   -0.51016E-04   -0.74561E-04  9600   0.199E-01
  84 F= -.19142643E+03 E0= -.19133197E+03  d E =-.196785E-01
       N       E                     dE             d eps       ncg     rms          rms(c)
DAV:   1    -0.191343177656E+03    0.83197E-01   -0.10163E+01  8160   0.678E+00    0.765E-01
DAV:   2    -0.191400790407E+03   -0.57613E-01   -0.35786E-01 13600   0.276E+00    0.193E+00
DAV:   3    -0.191360859436E+03    0.39931E-01   -0.10896E-01 11960   0.247E+00    0.671E-01
DAV:   4    -0.191355670904E+03    0.51885E-02   -0.11564E-02 11640   0.626E-01    0.265E-01
DAV:   5    -0.191354336882E+03    0.13340E-02   -0.50794E-03 11360   0.265E-01    0.160E-01
DAV:   6    -0.191354926847E+03   -0.58996E-03   -0.32827E-03 11840   0.362E-01    0.275E-01
DAV:   7    -0.191354075987E+03    0.85086E-03   -0.16569E-03 11520   0.327E-01    0.805E-02
DAV:   8    -0.191354009705E+03    0.66282E-04   -0.21202E-04  6800   0.833E-02
  85 F= -.19135401E+03 E0= -.19125566E+03  d E =0.724157E-01
       N       E                     dE             d eps       ncg     rms          rms(c)
DAV:   1    -0.191294628365E+03    0.59448E-01   -0.94948E+00  8160   0.654E+00    0.746E-01
DAV:   2    -0.191340918961E+03   -0.46291E-01   -0.28911E-01 13480   0.252E+00    0.180E+00
DAV:   3    -0.191307075601E+03    0.33843E-01   -0.89480E-02 11960   0.230E+00    0.647E-01
DAV:   4    -0.191302962599E+03    0.41130E-02   -0.10161E-02 10920   0.674E-01    0.360E-01
DAV:   5    -0.191302761923E+03    0.20068E-03   -0.77767E-03 11840   0.675E-01    0.422E-01
DAV:   6    -0.191301319187E+03    0.14427E-02   -0.50806E-03 11720   0.507E-01    0.181E-01
DAV:   7    -0.191300837388E+03    0.48180E-03   -0.14097E-03 10960   0.194E-01    0.914E-02
DAV:   8    -0.191300795696E+03    0.41692E-04   -0.43434E-04  9360   0.146E-01
  86 F= -.19130080E+03 E0= -.19120120E+03  d E =0.532140E-01
       N       E                     dE             d eps       ncg     rms          rms(c)
DAV:   1    -0.191297965021E+03    0.28724E-02   -0.40213E+00  8160   0.420E+00    0.518E-01
DAV:   2    -0.191335782516E+03   -0.37817E-01   -0.13607E-01 13360   0.218E+00    0.177E+00
DAV:   3    -0.191301570568E+03    0.34212E-01   -0.62383E-02 11840   0.196E+00    0.323E-01
DAV:   4    -0.191300980070E+03    0.59050E-03   -0.39819E-03 11280   0.361E-01    0.264E-01
DAV:   5    -0.191300588511E+03    0.39156E-03   -0.33381E-03 12360   0.429E-01    0.237E-01
DAV:   6    -0.191300245211E+03    0.34330E-03   -0.18116E-03 11240   0.296E-01    0.128E-01
DAV:   7    -0.191300203030E+03    0.42181E-04   -0.87138E-04  9760   0.208E-01
  87 F= -.19130020E+03 E0= -.19120034E+03  d E =0.592665E-03
       N       E                     dE             d eps       ncg     rms          rms(c)
DAV:   1    -0.191313255465E+03   -0.13010E-01   -0.52654E-01  8160   0.155E+00    0.180E-01
DAV:   2    -0.191316010006E+03   -0.27545E-02   -0.16845E-02 13600   0.625E-01    0.448E-01
DAV:   3    -0.191313942006E+03    0.20680E-02   -0.51338E-03 12040   0.549E-01    0.144E-01
DAV:   4    -0.191313776673E+03    0.16533E-03   -0.82354E-04  9760   0.166E-01    0.789E-02
DAV:   5    -0.191313673564E+03    0.10311E-03   -0.28420E-04  8280   0.817E-02    0.472E-02
DAV:   6    -0.191313766430E+03   -0.92867E-04   -0.30234E-04  8440   0.132E-01
  88 F= -.19131377E+03 E0= -.19121391E+03  d E =-.135634E-01
       N       E                     dE             d eps       ncg     rms          rms(c)
DAV:   1    -0.191332847951E+03   -0.19174E-01   -0.11721E+00  8160   0.231E+00    0.231E-01
DAV:   2    -0.191335831534E+03   -0.29836E-02   -0.32706E-02 12560   0.616E-01    0.344E-01
DAV:   3    -0.191335252774E+03    0.57876E-03   -0.71577E-03 12360   0.601E-01    0.293E-01
DAV:   4    -0.191334412731E+03    0.84004E-03   -0.17147E-03 11280   0.308E-01    0.104E-01
DAV:   5    -0.191334257921E+03    0.15481E-03   -0.56154E-04 10120   0.118E-01    0.693E-02
DAV:   6    -0.191334402914E+03   -0.14499E-03   -0.48580E-04  8880   0.165E-01    0.124E-01
DAV:   7    -0.191334216980E+03    0.18593E-03   -0.29219E-04  7480   0.136E-01    0.263E-02
DAV:   8    -0.191334218045E+03   -0.10655E-05   -0.38881E-05  5520   0.382E-02
  89 F= -.19133422E+03 E0= -.19123480E+03  d E =-.204516E-01
       N       E                     dE             d eps       ncg     rms          rms(c)
DAV:   1    -0.191349131190E+03   -0.14914E-01   -0.72729E-01  8160   0.182E+00    0.190E-01
DAV:   2    -0.191351569437E+03   -0.24382E-02   -0.19581E-02 13600   0.577E-01    0.383E-01
DAV:   3    -0.191350211659E+03    0.13578E-02   -0.50203E-03 12240   0.537E-01    0.188E-01
DAV:   4    -0.191349903812E+03    0.30785E-03   -0.10858E-03  9520   0.211E-01    0.898E-02
DAV:   5    -0.191349821522E+03    0.82290E-04   -0.41670E-04  9440   0.134E-01
  90 F= -.19134982E+03 E0= -.19125078E+03  d E =-.156035E-01
       N       E                     dE             d eps       ncg     rms          rms(c)
DAV:   1    -0.191338097913E+03    0.11806E-01   -0.19922E+00  8160   0.299E+00    0.339E-01
DAV:   2    -0.191350834650E+03   -0.12737E-01   -0.59960E-02 13600   0.125E+00    0.959E-01
DAV:   3    -0.191340368418E+03    0.10466E-01   -0.20038E-02 11480   0.113E+00    0.251E-01
DAV:   4    -0.191339914916E+03    0.45350E-03   -0.23550E-03 11160   0.268E-01    0.166E-01
DAV:   5    -0.191339762013E+03    0.15290E-03   -0.13556E-03 11280   0.270E-01    0.163E-01
DAV:   6    -0.191339573472E+03    0.18854E-03   -0.89793E-04  9920   0.220E-01    0.860E-02
DAV:   7    -0.191339503072E+03    0.70400E-04   -0.30441E-04  7320   0.114E-01
  91 F= -.19133950E+03 E0= -.19124012E+03  d E =0.103184E-01
       N       E                     dE             d eps       ncg     rms          rms(c)
DAV:   1    -0.191325952529E+03    0.13621E-01   -0.52577E-01  8160   0.155E+00    0.159E-01
DAV:   2    -0.191327607336E+03   -0.16548E-02   -0.14584E-02 13360   0.453E-01    0.303E-01
DAV:   3    -0.191326808415E+03    0.79892E-03   -0.36966E-03 12200   0.445E-01    0.169E-01
DAV:   4    -0.191326516661E+03    0.29175E-03   -0.60449E-04  8760   0.166E-01    0.647E-02
DAV:   5    -0.191326490206E+03    0.26455E-04   -0.27778E-04  7000   0.103E-01
  92 F= -.19132649E+03 E0= -.19122695E+03  d E =0.130129E-01
       N       E                     dE             d eps       ncg     rms          rms(c)
DAV:   1    -0.191270811831E+03    0.55705E-01   -0.62500E+00  8160   0.533E+00    0.533E-01
DAV:   2    -0.191285772409E+03   -0.14961E-01   -0.16802E-01 12760   0.135E+00    0.790E-01
DAV:   3    -0.191283049199E+03    0.27232E-02   -0.35011E-02 12040   0.133E+00    0.646E-01
DAV:   4    -0.191278890488E+03    0.41587E-02   -0.98812E-03 12000   0.708E-01    0.279E-01
DAV:   5    -0.191278453099E+03    0.43739E-03   -0.42316E-03 11200   0.460E-01    0.288E-01
DAV:   6    -0.191278122732E+03    0.33037E-03   -0.33585E-03 12480   0.428E-01    0.202E-01
DAV:   7    -0.191277550903E+03    0.57183E-03   -0.10844E-03 10320   0.194E-01    0.411E-02
DAV:   8    -0.191277545145E+03    0.57583E-05   -0.11597E-04  6000   0.490E-02
  93 F= -.19127755E+03 E0= -.19117742E+03  d E =0.489451E-01
       N       E                     dE             d eps       ncg     rms          rms(c)
DAV:   1    -0.191285960660E+03   -0.84098E-02   -0.15025E+00  8160   0.258E+00    0.329E-01
DAV:   2    -0.191300463662E+03   -0.14503E-01   -0.55116E-02 13600   0.135E+00    0.110E+00
DAV:   3    -0.191287375363E+03    0.13088E-01   -0.23995E-02 11920   0.121E+00    0.207E-01
DAV:   4    -0.191287114056E+03    0.26131E-03   -0.17447E-03 10760   0.236E-01    0.153E-01
DAV:   5    -0.191286999525E+03    0.11453E-03   -0.12364E-03 11280   0.262E-01    0.153E-01
DAV:   6    -0.191286865906E+03    0.13362E-03   -0.81072E-04  9760   0.200E-01    0.871E-02
DAV:   7    -0.191286815009E+03    0.50897E-04   -0.35099E-04  7440   0.128E-01
  94 F= -.19128682E+03 E0= -.19118689E+03  d E =-.926986E-02
       N       E                     dE             d eps       ncg     rms          rms(c)
DAV:   1    -0.191307939128E+03   -0.21073E-01   -0.15567E+00  8160   0.267E+00    0.280E-01
DAV:   2    -0.191311801669E+03   -0.38625E-02   -0.45680E-02 12960   0.727E-01    0.397E-01
DAV:   3    -0.191311163025E+03    0.63864E-03   -0.10035E-02 11680   0.703E-01    0.355E-01
DAV:   4    -0.191309893074E+03    0.12700E-02   -0.30751E-03 11840   0.403E-01    0.135E-01
DAV:   5    -0.191309600180E+03    0.29289E-03   -0.84784E-04 10240   0.129E-01    0.704E-02
DAV:   6    -0.191309734802E+03   -0.13462E-03   -0.56550E-04 10240   0.160E-01    0.126E-01
DAV:   7    -0.191309544596E+03    0.19021E-03   -0.31381E-04  8080   0.145E-01    0.307E-02
DAV:   8    -0.191309538528E+03    0.60679E-05   -0.42369E-05  5600   0.377E-02
  95 F= -.19130954E+03 E0= -.19120979E+03  d E =-.227235E-01
       N       E                     dE             d eps       ncg     rms          rms(c)
DAV:   1    -0.191295305843E+03    0.14239E-01   -0.49802E-01  8160   0.151E+00    0.147E-01
DAV:   2    -0.191296270392E+03   -0.96455E-03   -0.12256E-02 12760   0.352E-01    0.189E-01
DAV:   3    -0.191296162706E+03    0.10769E-03   -0.23237E-03 12160   0.340E-01    0.185E-01
DAV:   4    -0.191295859743E+03    0.30296E-03   -0.97400E-04  9760   0.230E-01    0.887E-02
DAV:   5    -0.191295762581E+03    0.97162E-04   -0.29142E-04  7040   0.111E-01
  96 F= -.19129576E+03 E0= -.19119586E+03  d E =0.137759E-01
       N       E                     dE             d eps       ncg     rms          rms(c)
DAV:   1    -0.191231308003E+03    0.64552E-01   -0.10472E+01  8160   0.690E+00    0.669E-01
DAV:   2    -0.191249223650E+03   -0.17916E-01   -0.26026E-01 12520   0.148E+00    0.655E-01
DAV:   3    -0.191252526514E+03   -0.33029E-02   -0.39738E-02 12480   0.139E+00    0.890E-01
DAV:   4    -0.191244200519E+03    0.83260E-02   -0.16601E-02 11280   0.987E-01    0.355E-01
DAV:   5    -0.191243500432E+03    0.70009E-03   -0.66383E-03 11600   0.545E-01    0.354E-01
DAV:   6    -0.191243465453E+03    0.34979E-04   -0.63840E-03 12520   0.594E-01    0.319E-01
DAV:   7    -0.191242117778E+03    0.13477E-02   -0.21634E-03 10880   0.304E-01    0.499E-02
DAV:   8    -0.191242119136E+03   -0.13580E-05   -0.21676E-04  6920   0.532E-02
  97 F= -.19124212E+03 E0= -.19114172E+03  d E =0.536434E-01
       N       E                     dE             d eps       ncg     rms          rms(c)
DAV:   1    -0.191225149514E+03    0.16968E-01   -0.21223E+00  8160   0.310E+00    0.300E-01
DAV:   2    -0.191228098990E+03   -0.29495E-02   -0.48215E-02 12400   0.630E-01    0.280E-01
DAV:   3    -0.191229337943E+03   -0.12390E-02   -0.85304E-03 12840   0.660E-01    0.470E-01
DAV:   4    -0.191227075683E+03    0.22623E-02   -0.38925E-03 11240   0.486E-01    0.132E-01
DAV:   5    -0.191226959398E+03    0.11629E-03   -0.11395E-03  9920   0.179E-01    0.123E-01
DAV:   6    -0.191227057423E+03   -0.98025E-04   -0.91697E-04 10400   0.227E-01
  98 F= -.19122706E+03 E0= -.19112668E+03  d E =0.150617E-01
       N       E                     dE             d eps       ncg     rms          rms(c)
DAV:   1    -0.191245993628E+03   -0.19034E-01   -0.13146E+00  8160   0.245E+00    0.301E-01
DAV:   2    -0.191254396995E+03   -0.84034E-02   -0.53180E-02 13320   0.997E-01    0.755E-01
DAV:   3    -0.191248794731E+03    0.56023E-02   -0.16209E-02 11840   0.942E-01    0.286E-01
DAV:   4    -0.191247974410E+03    0.82032E-03   -0.26883E-03 10880   0.312E-01    0.127E-01
DAV:   5    -0.191247636682E+03    0.33773E-03   -0.70613E-04 11080   0.108E-01    0.509E-02
DAV:   6    -0.191247672104E+03   -0.35422E-04   -0.35348E-04  8320   0.855E-02
  99 F= -.19124767E+03 E0= -.19114693E+03  d E =-.206147E-01
       N       E                     dE             d eps       ncg     rms          rms(c)
DAV:   1    -0.191251356063E+03   -0.37194E-02   -0.46921E-02  8160   0.476E-01    0.797E-02
DAV:   2    -0.191252265941E+03   -0.90988E-03   -0.29250E-03 13400   0.317E-01    0.280E-01
DAV:   3    -0.191251371898E+03    0.89404E-03   -0.15055E-03  9720   0.300E-01    0.503E-02
DAV:   4    -0.191251373159E+03   -0.12612E-05   -0.10447E-04  5520   0.543E-02
 100 F= -.19125137E+03 E0= -.19115063E+03  d E =-.370105E-02
