<?xml version="1.0" encoding="ISO-8859-1"?>
<modeling>
 <generator>
  <i name="program" type="string">vasp </i>
  <i name="version" type="string">5.4.1  </i>
  <i name="subversion" type="string">05Feb16 (build Jul 05 2020 17:13:04) complex                          parallel </i>
  <i name="platform" type="string">IFC91_ompi </i>
  <i name="date" type="string">2024 07 07 </i>
  <i name="time" type="string">06:12:13 </i>
 </generator>
 <incar>
  <i type="int" name="ISTART">     0</i>
  <i type="string" name="PREC">normal</i>
  <i type="string" name="ALGO"> Normal</i>
  <i type="int" name="ISPIN">     1</i>
  <i type="int" name="ICHARG">     2</i>
  <i type="int" name="IBRION">     1</i>
  <i type="int" name="NSW">   100</i>
  <i type="int" name="ISIF">     3</i>
  <i type="int" name="ISYM">     0</i>
  <i name="SYMPREC">      0.00000001</i>
  <i name="POTIM">      0.50000000</i>
  <i type="logical" name="LREAL"> F  </i>
  <i type="logical" name="LPLANE"> F  </i>
  <i type="int" name="ISMEAR">     0</i>
  <i type="logical" name="LWAVE"> F  </i>
  <i type="logical" name="LCHARG"> F  </i>
  <v type="int" name="KPOINT_BSE">    -1     0     0     0</v>
 </incar>
 <kpoints>
  <generation param="Gamma">
   <v type="int" name="divisions">       8        8        1 </v>
   <v name="usershift">      0.00000000       0.00000000       0.00000000 </v>
   <v name="genvec1">      0.12500000       0.00000000       0.00000000 </v>
   <v name="genvec2">     -0.00000000       0.12500000       0.00000000 </v>
   <v name="genvec3">      0.00000000       0.00000000       1.00000000 </v>
   <v name="shift">      0.00000000       0.00000000       0.00000000 </v>
  </generation>
  <varray name="kpointlist" >
   <v>       0.00000000       0.00000000       0.00000000 </v>
   <v>       0.12500000       0.00000000       0.00000000 </v>
   <v>       0.25000000       0.00000000       0.00000000 </v>
   <v>       0.37500000       0.00000000       0.00000000 </v>
   <v>       0.50000000       0.00000000       0.00000000 </v>
   <v>       0.00000000       0.12500000       0.00000000 </v>
   <v>       0.12500000       0.12500000       0.00000000 </v>
   <v>       0.25000000       0.12500000       0.00000000 </v>
   <v>       0.37500000       0.12500000       0.00000000 </v>
   <v>       0.50000000       0.12500000       0.00000000 </v>
   <v>      -0.37500000       0.12500000       0.00000000 </v>
   <v>      -0.25000000       0.12500000       0.00000000 </v>
   <v>      -0.12500000       0.12500000       0.00000000 </v>
   <v>       0.00000000       0.25000000       0.00000000 </v>
   <v>       0.12500000       0.25000000       0.00000000 </v>
   <v>       0.25000000       0.25000000       0.00000000 </v>
   <v>       0.37500000       0.25000000       0.00000000 </v>
   <v>       0.50000000       0.25000000       0.00000000 </v>
   <v>      -0.37500000       0.25000000       0.00000000 </v>
   <v>      -0.25000000       0.25000000       0.00000000 </v>
   <v>      -0.12500000       0.25000000       0.00000000 </v>
   <v>      -0.00000000       0.37500000       0.00000000 </v>
   <v>       0.12500000       0.37500000       0.00000000 </v>
   <v>       0.25000000       0.37500000       0.00000000 </v>
   <v>       0.37500000       0.37500000       0.00000000 </v>
   <v>       0.50000000       0.37500000       0.00000000 </v>
   <v>      -0.37500000       0.37500000       0.00000000 </v>
   <v>      -0.25000000       0.37500000       0.00000000 </v>
   <v>      -0.12500000       0.37500000       0.00000000 </v>
   <v>       0.00000000       0.50000000       0.00000000 </v>
   <v>       0.12500000       0.50000000       0.00000000 </v>
   <v>       0.25000000       0.50000000       0.00000000 </v>
   <v>       0.37500000       0.50000000       0.00000000 </v>
   <v>       0.50000000       0.50000000       0.00000000 </v>
  </varray>
  <varray name="weights" >
   <v>       0.01562500 </v>
   <v>       0.03125000 </v>
   <v>       0.03125000 </v>
   <v>       0.03125000 </v>
   <v>       0.01562500 </v>
   <v>       0.03125000 </v>
   <v>       0.03125000 </v>
   <v>       0.03125000 </v>
   <v>       0.03125000 </v>
   <v>       0.03125000 </v>
   <v>       0.03125000 </v>
   <v>       0.03125000 </v>
   <v>       0.03125000 </v>
   <v>       0.03125000 </v>
   <v>       0.03125000 </v>
   <v>       0.03125000 </v>
   <v>       0.03125000 </v>
   <v>       0.03125000 </v>
   <v>       0.03125000 </v>
   <v>       0.03125000 </v>
   <v>       0.03125000 </v>
   <v>       0.03125000 </v>
   <v>       0.03125000 </v>
   <v>       0.03125000 </v>
   <v>       0.03125000 </v>
   <v>       0.03125000 </v>
   <v>       0.03125000 </v>
   <v>       0.03125000 </v>
   <v>       0.03125000 </v>
   <v>       0.01562500 </v>
   <v>       0.03125000 </v>
   <v>       0.03125000 </v>
   <v>       0.03125000 </v>
   <v>       0.01562500 </v>
  </varray>
 </kpoints>
 <parameters>
  <separator name="general" >
   <i type="string" name="SYSTEM">unknown system</i>
   <i type="logical" name="LCOMPAT"> F  </i>
  </separator>
  <separator name="electronic" >
   <i type="string" name="PREC">normal</i>
   <i name="ENMAX">    280.00000000</i>
   <i name="ENAUG">    373.43800000</i>
   <i name="EDIFF">      0.00010000</i>
   <i type="int" name="IALGO">    38</i>
   <i type="int" name="IWAVPR">    11</i>
   <i type="int" name="NBANDS">   120</i>
   <i name="NELECT">    159.00000000</i>
   <i type="int" name="TURBO">     0</i>
   <i type="int" name="IRESTART">     0</i>
   <i type="int" name="NREBOOT">     0</i>
   <i type="int" name="NMIN">     0</i>
   <i name="EREF">      0.00000000</i>
   <separator name="electronic smearing" >
    <i type="int" name="ISMEAR">     0</i>
    <i name="SIGMA">      0.20000000</i>
    <i name="KSPACING">      0.50000000</i>
    <i type="logical" name="KGAMMA"> T  </i>
   </separator>
   <separator name="electronic projectors" >
    <i type="logical" name="LREAL"> F  </i>
    <v name="ROPT">      0.00000000      0.00000000      0.00000000      0.00000000</v>
    <i type="int" name="LMAXPAW">  -100</i>
    <i type="int" name="LMAXMIX">     2</i>
    <i type="logical" name="NLSPLINE"> F  </i>
   </separator>
   <separator name="electronic startup" >
    <i type="int" name="ISTART">     0</i>
    <i type="int" name="ICHARG">     2</i>
    <i type="int" name="INIWAV">     1</i>
   </separator>
   <separator name="electronic spin" >
    <i type="int" name="ISPIN">     1</i>
    <i type="logical" name="LNONCOLLINEAR"> F  </i>
    <v name="MAGMOM">      1.00000000      1.00000000      1.00000000      1.00000000      1.00000000      1.00000000      1.00000000      1.00000000      1.00000000      1.00000000      1.00000000      1.00000000      1.00000000      1.00000000      1.00000000      1.00000000      1.00000000      1.00000000      1.00000000      1.00000000
      1.00000000      1.00000000      1.00000000      1.00000000      1.00000000      1.00000000      1.00000000</v>
    <i name="NUPDOWN">     -1.00000000</i>
    <i type="logical" name="LSORBIT"> F  </i>
    <v name="SAXIS">      0.00000000      0.00000000      1.00000000</v>
    <i type="logical" name="LSPIRAL"> F  </i>
    <v name="QSPIRAL">      0.00000000      0.00000000      0.00000000</v>
    <i type="logical" name="LZEROZ"> F  </i>
   </separator>
   <separator name="electronic exchange-correlation" >
    <i type="logical" name="LASPH"> F  </i>
    <i type="logical" name="LMETAGGA"> F  </i>
   </separator>
   <separator name="electronic convergence" >
    <i type="int" name="NELM">    60</i>
    <i type="int" name="NELMDL">    -5</i>
    <i type="int" name="NELMIN">     2</i>
    <i name="ENINI">    280.00000000</i>
    <separator name="electronic convergence detail" >
     <i type="logical" name="LDIAG"> T  </i>
     <i type="logical" name="LSUBROT"> F  </i>
     <i name="WEIMIN">      0.00100000</i>
     <i name="EBREAK">      0.00000021</i>
     <i name="DEPER">      0.30000000</i>
     <i type="int" name="NRMM">     4</i>
     <i name="TIME">      0.40000000</i>
    </separator>
   </separator>
   <separator name="electronic mixer" >
    <i name="AMIX">      0.40000000</i>
    <i name="BMIX">      1.00000000</i>
    <i name="AMIN">      0.10000000</i>
    <i name="AMIX_MAG">      1.60000000</i>
    <i name="BMIX_MAG">      1.00000000</i>
    <separator name="electronic mixer details" >
     <i type="int" name="IMIX">     4</i>
     <i type="logical" name="MIXFIRST"> F  </i>
     <i type="int" name="MAXMIX">   -45</i>
     <i name="WC">    100.00000000</i>
     <i type="int" name="INIMIX">     1</i>
     <i type="int" name="MIXPRE">     1</i>
     <i type="int" name="MREMOVE">     5</i>
    </separator>
   </separator>
   <separator name="electronic dipolcorrection" >
    <i type="logical" name="LDIPOL"> F  </i>
    <i type="logical" name="LMONO"> F  </i>
    <i type="int" name="IDIPOL">     0</i>
    <i name="EPSILON">      1.00000000</i>
    <v name="DIPOL">   -100.00000000   -100.00000000   -100.00000000</v>
    <i name="EFIELD">      0.00000000</i>
   </separator>
  </separator>
  <separator name="grids" >
   <i type="int" name="NGX">    42</i>
   <i type="int" name="NGY">    42</i>
   <i type="int" name="NGZ">   126</i>
   <i type="int" name="NGXF">    84</i>
   <i type="int" name="NGYF">    84</i>
   <i type="int" name="NGZF">   252</i>
   <i type="logical" name="ADDGRID"> F  </i>
  </separator>
  <separator name="ionic" >
   <i type="int" name="NSW">   100</i>
   <i type="int" name="IBRION">     1</i>
   <i type="int" name="ISIF">     3</i>
   <i name="PSTRESS">      0.00000000</i>
   <i name="EDIFFG">      0.00100000</i>
   <i type="int" name="NFREE">     0</i>
   <i name="POTIM">      0.50000000</i>
   <i name="SMASS">     -3.00000000</i>
   <i name="SCALEE">      1.00000000</i>
  </separator>
  <separator name="ionic md" >
   <i name="TEBEG">      0.00010000</i>
   <i name="TEEND">      0.00010000</i>
   <i type="int" name="NBLOCK">     1</i>
   <i type="int" name="KBLOCK">   100</i>
   <i type="int" name="NPACO">   256</i>
   <i name="APACO">     16.00000000</i>
  </separator>
  <separator name="symmetry" >
   <i type="int" name="ISYM">     0</i>
   <i name="SYMPREC">      0.00000001</i>
  </separator>
  <separator name="dos" >
   <i type="logical" name="LORBIT"> F  </i>
   <v name="RWIGS">     -1.00000000     -1.00000000     -1.00000000     -1.00000000</v>
   <i type="int" name="NEDOS">   301</i>
   <i name="EMIN">     10.00000000</i>
   <i name="EMAX">    -10.00000000</i>
   <i name="EFERMI">      0.00000000</i>
  </separator>
  <separator name="writing" >
   <i type="int" name="NWRITE">     2</i>
   <i type="logical" name="LWAVE"> F  </i>
   <i type="logical" name="LCHARG"> F  </i>
   <i type="logical" name="LPARD"> F  </i>
   <i type="logical" name="LVTOT"> F  </i>
   <i type="logical" name="LVHAR"> F  </i>
   <i type="logical" name="LELF"> F  </i>
   <i type="logical" name="LOPTICS"> F  </i>
   <v name="STM">      0.00000000      0.00000000      0.00000000      0.00000000      0.00000000      0.00000000      0.00000000</v>
  </separator>
  <separator name="performance" >
   <i type="int" name="NPAR">    40</i>
   <i type="int" name="NSIM">     4</i>
   <i type="int" name="NBLK">    -1</i>
   <i type="logical" name="LPLANE"> F  </i>
   <i type="logical" name="LSCALAPACK"> T  </i>
   <i type="logical" name="LSCAAWARE"> F  </i>
   <i type="logical" name="LSCALU"> F  </i>
   <i type="logical" name="LASYNC"> F  </i>
   <i type="logical" name="LORBITALREAL"> F  </i>
  </separator>
  <separator name="miscellaneous" >
   <i type="int" name="IDIOT">     3</i>
   <i type="logical" name="LMUSIC"> F  </i>
   <v name="POMASS">     50.94100000     95.94000000    183.85000000     32.06600000</v>
   <v name="DARWINR">      0.00000000      0.00000000      0.00000000      0.00000000</v>
   <v name="DARWINV">      1.00000000      1.00000000      1.00000000      1.00000000</v>
   <i type="logical" name="LCORR"> T  </i>
  </separator>
  <i type="logical" name="GGA_COMPAT"> T  </i>
  <i type="logical" name="LBERRY"> F  </i>
  <i type="int" name="ICORELEVEL">     0</i>
  <i type="logical" name="LDAU"> F  </i>
  <i type="int" name="I_CONSTRAINED_M">     0</i>
  <separator name="electronic exchange-correlation" >
   <i type="string" name="GGA">--</i>
   <i type="int" name="VOSKOWN">     0</i>
   <i type="logical" name="LHFCALC"> F  </i>
   <i type="string" name="PRECFOCK"></i>
   <i type="logical" name="LSYMGRAD"> F  </i>
   <i type="logical" name="LHFONE"> F  </i>
   <i type="logical" name="LRHFCALC"> F  </i>
   <i type="logical" name="LTHOMAS"> F  </i>
   <i type="logical" name="LMODELHF"> F  </i>
   <i name="ENCUT4O">     -1.00000000</i>
   <i type="int" name="EXXOEP">     0</i>
   <i type="int" name="FOURORBIT">     0</i>
   <i name="AEXX">      0.00000000</i>
   <i name="HFALPHA">      0.00000000</i>
   <i name="MCALPHA">      0.00000000</i>
   <i name="ALDAX">      1.00000000</i>
   <i name="AGGAX">      1.00000000</i>
   <i name="ALDAC">      1.00000000</i>
   <i name="AGGAC">      1.00000000</i>
   <i type="int" name="NKREDX">     1</i>
   <i type="int" name="NKREDY">     1</i>
   <i type="int" name="NKREDZ">     1</i>
   <i type="logical" name="SHIFTRED"> F  </i>
   <i type="logical" name="ODDONLY"> F  </i>
   <i type="logical" name="EVENONLY"> F  </i>
   <i type="int" name="LMAXFOCK">     0</i>
   <i type="int" name="NMAXFOCKAE">     0</i>
   <i type="logical" name="LFOCKAEDFT"> F  </i>
   <i name="HFSCREEN">      0.00000000</i>
   <i name="HFSCREENC">      0.00000000</i>
   <i type="int" name="NBANDSGWLOW">     0</i>
  </separator>
  <separator name="vdW DFT" >
   <i type="logical" name="LUSE_VDW"> F  </i>
   <i name="Zab_VDW">     -0.84910000</i>
   <i name="PARAM1">      0.12340000</i>
   <i name="PARAM2">      1.00000000</i>
   <i name="PARAM3">      0.00000000</i>
  </separator>
  <separator name="model GW" >
   <i type="int" name="MODEL_GW">     0</i>
   <i name="MODEL_EPS0">     58.26239943</i>
   <i name="MODEL_ALPHA">      1.00000000</i>
  </separator>
  <separator name="linear response parameters" >
   <i type="logical" name="LEPSILON"> F  </i>
   <i type="logical" name="LRPA"> F  </i>
   <i type="logical" name="LNABLA"> F  </i>
   <i type="logical" name="LVEL"> F  </i>
   <i type="int" name="KINTER">     0</i>
   <i name="CSHIFT">      0.10000000</i>
   <i name="OMEGAMAX">     -1.00000000</i>
   <i name="DEG_THRESHOLD">      0.00200000</i>
  </separator>
  <separator name="orbital magnetization" >
   <i type="logical" name="NUCIND"> F  </i>
   <v name="MAGPOS">      0.00000000      0.00000000      0.00000000</v>
   <i type="logical" name="LNICSALL"> T  </i>
   <i type="logical" name="ORBITALMAG"> F  </i>
   <i type="logical" name="LMAGBLOCH"> F  </i>
   <i type="logical" name="LCHIMAG"> F  </i>
   <i type="logical" name="LGAUGE"> T  </i>
   <i type="int" name="MAGATOM">     0</i>
   <v name="MAGDIPOL">      0.00000000      0.00000000      0.00000000</v>
   <v name="AVECCONST">      0.00000000      0.00000000      0.00000000</v>
  </separator>
  <separator name="response functions" >
   <i type="logical" name="LADDER"> F  </i>
   <i type="logical" name="LFXC"> F  </i>
   <i type="logical" name="LHARTREE"> T  </i>
   <i type="int" name="IBSE">     0</i>
   <v type="int" name="KPOINT">    -1     0     0     0</v>
   <i type="logical" name="LTCTE"> F  </i>
   <i type="logical" name="LTETE"> F  </i>
   <i type="logical" name="LTRIPLET"> F  </i>
   <i type="logical" name="LFXCEPS"> F  </i>
   <i type="logical" name="LFXHEG"> F  </i>
   <i type="int" name="NATURALO">     0</i>
   <i type="logical" name="L2ORDER"> F  </i>
   <i type="logical" name="LUSEW"> F  </i>
   <i name="ENCUTGW">     -2.00000000</i>
   <i name="ENCUTGWSOFT">     -2.00000000</i>
   <i name="ENCUTLF">     -1.00000000</i>
   <i type="int" name="LMAXMP2">    -1</i>
   <i name="SCISSOR">      0.00000000</i>
   <i type="int" name="NOMEGA">     0</i>
   <i type="int" name="NOMEGAR">     0</i>
   <i type="int" name="NBANDSGW">    -1</i>
   <i type="int" name="NBANDSO">    -1</i>
   <i type="int" name="NBANDSV">    -1</i>
   <i type="int" name="NELM">     1</i>
   <i type="int" name="NELMHF">     1</i>
   <i type="int" name="DIM">     3</i>
   <i type="int" name="ANTIRES">     0</i>
   <i name="OMEGAMAX">    -30.00000000</i>
   <i name="OMEGAMIN">    -30.00000000</i>
   <i name="OMEGATL">   -200.00000000</i>
   <i type="int" name="OMEGAGRID">     0</i>
   <i name="CSHIFT">     -0.10000000</i>
   <i type="logical" name="SELFENERGY"> F  </i>
   <i type="logical" name="LSPECTRAL"> F  </i>
   <i type="logical" name="LSPECTRALGW"> F  </i>
   <i type="logical" name="LSINGLES"> F  </i>
   <i type="logical" name="LFERMIGW"> F  </i>
   <i type="logical" name="ODDONLYGW"> F  </i>
   <i type="logical" name="EVENONLYGW"> F  </i>
   <i type="int" name="NKREDLFX">     1</i>
   <i type="int" name="NKREDLFY">     1</i>
   <i type="int" name="NKREDLFZ">     1</i>
   <i type="int" name="MAXMEM">  1800</i>
   <i type="int" name="TELESCOPE">     0</i>
   <i type="int" name="TAUPAR">     1</i>
   <i type="int" name="OMEGAPAR">    -1</i>
   <i name="LAMBDA">      1.00000000</i>
  </separator>
  <separator name="External order field" >
   <i name="OFIELD_KAPPA">      0.00000000</i>
   <v name="OFIELD_K">      0.00000000      0.00000000      0.00000000</v>
   <i name="OFIELD_Q6_NEAR">      0.00000000</i>
   <i name="OFIELD_Q6_FAR">      0.00000000</i>
   <i name="OFIELD_A">      0.00000000</i>
  </separator>
 </parameters>
 <atominfo>
  <atoms>      27 </atoms>
  <types>       4 </types>
  <array name="atoms" >
   <dimension dim="1">ion</dimension>
   <field type="string">element</field>
   <field type="int">atomtype</field>
   <set>
    <rc><c>V </c><c>   1</c></rc>
    <rc><c>V </c><c>   1</c></rc>
    <rc><c>V </c><c>   1</c></rc>
    <rc><c>Mo</c><c>   2</c></rc>
    <rc><c>Mo</c><c>   2</c></rc>
    <rc><c>Mo</c><c>   2</c></rc>
    <rc><c>W </c><c>   3</c></rc>
    <rc><c>W </c><c>   3</c></rc>
    <rc><c>W </c><c>   3</c></rc>
    <rc><c>S </c><c>   4</c></rc>
    <rc><c>S </c><c>   4</c></rc>
    <rc><c>S </c><c>   4</c></rc>
    <rc><c>S </c><c>   4</c></rc>
    <rc><c>S </c><c>   4</c></rc>
    <rc><c>S </c><c>   4</c></rc>
    <rc><c>S </c><c>   4</c></rc>
    <rc><c>S </c><c>   4</c></rc>
    <rc><c>S </c><c>   4</c></rc>
    <rc><c>S </c><c>   4</c></rc>
    <rc><c>S </c><c>   4</c></rc>
    <rc><c>S </c><c>   4</c></rc>
    <rc><c>S </c><c>   4</c></rc>
    <rc><c>S </c><c>   4</c></rc>
    <rc><c>S </c><c>   4</c></rc>
    <rc><c>S </c><c>   4</c></rc>
    <rc><c>S </c><c>   4</c></rc>
    <rc><c>S </c><c>   4</c></rc>
   </set>
  </array>
  <array name="atomtypes" >
   <dimension dim="1">type</dimension>
   <field type="int">atomspertype</field>
   <field type="string">element</field>
   <field>mass</field>
   <field>valence</field>
   <field type="string">pseudopotential</field>
   <set>
    <rc><c>   3</c><c>V </c><c>     50.94100000</c><c>      5.00000000</c><c> PAW_PBE V 08Apr2002                    </c></rc>
    <rc><c>   3</c><c>Mo</c><c>     95.94000000</c><c>      6.00000000</c><c> PAW_PBE Mo 08Apr2002                   </c></rc>
    <rc><c>   3</c><c>W </c><c>    183.85000000</c><c>      6.00000000</c><c> PAW_PBE W 08Apr2002                    </c></rc>
    <rc><c>  18</c><c>S </c><c>     32.06600000</c><c>      6.00000000</c><c>  PAW_PBE S 17Jan2003                   </c></rc>
   </set>
  </array>
 </atominfo>
 <structure name="initialpos" >
  <crystal>
   <varray name="basis" >
    <v>       8.66999996       5.03999989       0.00000000 </v>
    <v>      -8.66999982       5.04000013       0.00000000 </v>
    <v>       0.00000000       0.00000000      30.00000000 </v>
   </varray>
   <i name="volume">   2621.80797419 </i>
   <varray name="rec_basis" >
    <v>       0.05767013       0.09920635       0.00000000 </v>
    <v>      -0.05767013       0.09920635       0.00000000 </v>
    <v>       0.00000000       0.00000000       0.03333333 </v>
   </varray>
  </crystal>
  <varray name="positions" >
   <v>       0.00000000       0.66666669       0.00000000 </v>
   <v>       0.33333334       0.33333334       0.00000000 </v>
   <v>       0.66666669       0.00000000       0.00000000 </v>
   <v>       0.33333334       0.00000000       0.00000000 </v>
   <v>       0.33333334       0.66666669       0.00000000 </v>
   <v>       0.00000000       0.00000000       0.00000000 </v>
   <v>       1.00000000       0.33333334       0.00000000 </v>
   <v>       0.66666669       0.33333334       0.00000000 </v>
   <v>       0.66666669       0.66666669       0.00000000 </v>
   <v>       0.11068511       0.22244981       0.95539999 </v>
   <v>       0.22244981       0.11068511       0.04460000 </v>
   <v>       0.11068511       0.55578315       0.95539999 </v>
   <v>       0.22244981       0.44401845       0.04460000 </v>
   <v>       0.11068511       0.88911647       0.95539999 </v>
   <v>       0.22244981       0.77735180       0.04460000 </v>
   <v>       0.44401845       0.22244981       0.95539999 </v>
   <v>       0.55578315       0.11068511       0.04460000 </v>
   <v>       0.44401845       0.55578315       0.95539999 </v>
   <v>       0.55578315       0.44401845       0.04460000 </v>
   <v>       0.44401845       0.88911647       0.95539999 </v>
   <v>       0.55578315       0.77735180       0.04460000 </v>
   <v>       0.77735180       0.22244981       0.95539999 </v>
   <v>       0.88911647       0.11068511       0.04460000 </v>
   <v>       0.77735180       0.55578315       0.95539999 </v>
   <v>       0.88911647       0.44401845       0.04460000 </v>
   <v>       0.77735180       0.88911647       0.95539999 </v>
   <v>       0.88911647       0.77735180       0.04460000 </v>
  </varray>
 </structure>
 <calculation>
  <scstep>
   <time name="dav">   21.63   21.69</time>
   <time name="total">   21.68   21.74</time>
   <energy>
    <i name="alphaZ">     81.65567618 </i>
    <i name="ewald">  41888.36874788 </i>
    <i name="hartreedc"> -47720.98526481 </i>
    <i name="XCdc">   -242.93565377 </i>
    <i name="pawpsdc">   3467.42045192 </i>
    <i name="pawaedc">  -2871.19716117 </i>
    <i name="eentropy">     -0.52203542 </i>
    <i name="bandstr">   -238.80669472 </i>
    <i name="atom">   6761.44252427 </i>
    <i name="e_fr_energy">   1124.44059037 </i>
    <i name="e_wo_entrp">   1124.96262579 </i>
    <i name="e_0_energy">   1124.70160808 </i>
   </energy>
  </scstep>
  <scstep>
   <time name="dav">   27.64   27.70</time>
   <time name="total">   27.64   27.71</time>
   <energy>
    <i name="e_fr_energy">     -2.56829113 </i>
    <i name="e_wo_entrp">     -2.39646914 </i>
    <i name="e_0_energy">     -2.48238014 </i>
   </energy>
  </scstep>
  <scstep>
   <time name="dav">   27.62   27.69</time>
   <time name="total">   27.62   27.70</time>
   <energy>
    <i name="e_fr_energy">   -199.89600275 </i>
    <i name="e_wo_entrp">   -199.66291185 </i>
    <i name="e_0_energy">   -199.77945730 </i>
   </energy>
  </scstep>
  <scstep>
   <time name="dav">   29.81   29.88</time>
   <time name="total">   29.81   29.89</time>
   <energy>
    <i name="e_fr_energy">   -209.02417398 </i>
    <i name="e_wo_entrp">   -208.76166253 </i>
    <i name="e_0_energy">   -208.89291825 </i>
   </energy>
  </scstep>
  <scstep>
   <time name="dav">   28.60   28.67</time>
   <time name="total">   29.06   29.14</time>
   <energy>
    <i name="e_fr_energy">   -209.34984184 </i>
    <i name="e_wo_entrp">   -209.09046505 </i>
    <i name="e_0_energy">   -209.22015345 </i>
   </energy>
  </scstep>
  <scstep>
   <time name="dav">   31.16   31.23</time>
   <time name="total">   31.65   31.74</time>
   <energy>
    <i name="e_fr_energy">   -236.56055151 </i>
    <i name="e_wo_entrp">   -236.29001291 </i>
    <i name="e_0_energy">   -236.42528221 </i>
   </energy>
  </scstep>
  <scstep>
   <time name="dav">   30.68   30.75</time>
   <time name="total">   31.18   31.26</time>
   <energy>
    <i name="e_fr_energy">   -196.08275451 </i>
    <i name="e_wo_entrp">   -195.82661685 </i>
    <i name="e_0_energy">   -195.95468568 </i>
   </energy>
  </scstep>
  <scstep>
   <time name="dav">   29.71   29.78</time>
   <time name="total">   30.22   30.30</time>
   <energy>
    <i name="e_fr_energy">   -189.20689911 </i>
    <i name="e_wo_entrp">   -188.92068808 </i>
    <i name="e_0_energy">   -189.06379359 </i>
   </energy>
  </scstep>
  <scstep>
   <time name="dav">   32.57   32.65</time>
   <time name="total">   33.09   33.18</time>
   <energy>
    <i name="e_fr_energy">   -188.00047259 </i>
    <i name="e_wo_entrp">   -187.68821010 </i>
    <i name="e_0_energy">   -187.84434135 </i>
   </energy>
  </scstep>
  <scstep>
   <time name="dav">   31.86   31.94</time>
   <time name="total">   32.39   32.48</time>
   <energy>
    <i name="e_fr_energy">   -187.02105460 </i>
    <i name="e_wo_entrp">   -186.66916903 </i>
    <i name="e_0_energy">   -186.84511182 </i>
   </energy>
  </scstep>
  <scstep>
   <time name="dav">   30.17   30.24</time>
   <time name="total">   30.70   30.79</time>
   <energy>
    <i name="e_fr_energy">   -187.21950960 </i>
    <i name="e_wo_entrp">   -186.88953541 </i>
    <i name="e_0_energy">   -187.05452250 </i>
   </energy>
  </scstep>
  <scstep>
   <time name="dav">   31.39   31.46</time>
   <time name="total">   31.92   32.01</time>
   <energy>
    <i name="e_fr_energy">   -187.05249722 </i>
    <i name="e_wo_entrp">   -186.72109903 </i>
    <i name="e_0_energy">   -186.88679812 </i>
   </energy>
  </scstep>
  <scstep>
   <time name="dav">   31.22   31.30</time>
   <time name="total">   31.76   31.84</time>
   <energy>
    <i name="e_fr_energy">   -186.93559244 </i>
    <i name="e_wo_entrp">   -186.58953775 </i>
    <i name="e_0_energy">   -186.76256509 </i>
   </energy>
  </scstep>
  <scstep>
   <time name="dav">   28.78   28.85</time>
   <time name="total">   29.32   29.40</time>
   <energy>
    <i name="e_fr_energy">   -186.92922030 </i>
    <i name="e_wo_entrp">   -186.58271925 </i>
    <i name="e_0_energy">   -186.75596977 </i>
   </energy>
  </scstep>
  <scstep>
   <time name="dav">   32.25   32.33</time>
   <time name="total">   32.79   32.87</time>
   <energy>
    <i name="e_fr_energy">   -186.92390273 </i>
    <i name="e_wo_entrp">   -186.57857365 </i>
    <i name="e_0_energy">   -186.75123819 </i>
   </energy>
  </scstep>
  <scstep>
   <time name="dav">   31.69   31.77</time>
   <time name="total">   32.23   32.31</time>
   <energy>
    <i name="e_fr_energy">   -186.92354190 </i>
    <i name="e_wo_entrp">   -186.57918311 </i>
    <i name="e_0_energy">   -186.75136251 </i>
   </energy>
  </scstep>
  <scstep>
   <time name="dav">   31.71   31.79</time>
   <time name="total">   32.25   32.33</time>
   <energy>
    <i name="e_fr_energy">   -186.92359555 </i>
    <i name="e_wo_entrp">   -186.57889078 </i>
    <i name="e_0_energy">   -186.75124316 </i>
   </energy>
  </scstep>
  <scstep>
   <time name="dav">   28.72   28.79</time>
   <time name="total">   29.26   29.34</time>
   <energy>
    <i name="e_fr_energy">   -186.92252750 </i>
    <i name="e_wo_entrp">   -186.57740200 </i>
    <i name="e_0_energy">   -186.74996475 </i>
   </energy>
  </scstep>
  <scstep>
   <time name="dav">   27.30   27.37</time>
   <time name="total">   27.84   27.91</time>
   <energy>
    <i name="e_fr_energy">   -186.92325074 </i>
    <i name="e_wo_entrp">   -186.57868144 </i>
    <i name="e_0_energy">   -186.75096609 </i>
   </energy>
  </scstep>
  <scstep>
   <time name="dav">   22.65   22.70</time>
   <time name="total">   23.18   23.25</time>
   <energy>
    <i name="e_fr_energy">   -186.92424291 </i>
    <i name="e_wo_entrp">   -186.57953362 </i>
    <i name="e_0_energy">   -186.75188827 </i>
   </energy>
  </scstep>
  <scstep>
   <time name="dav">   19.50   19.54</time>
   <time name="total">   20.03   20.09</time>
   <energy>
    <i name="e_fr_energy">   -186.92470655 </i>
    <i name="e_wo_entrp">   -186.57997165 </i>
    <i name="e_0_energy">   -186.75233910 </i>
   </energy>
  </scstep>
  <scstep>
   <time name="dav">   20.20   20.24</time>
   <time name="total">   20.73   20.79</time>
   <energy>
    <i name="e_fr_energy">   -186.92595975 </i>
    <i name="e_wo_entrp">   -186.58125935 </i>
    <i name="e_0_energy">   -186.75360955 </i>
   </energy>
  </scstep>
  <scstep>
   <time name="dav">   20.10   20.15</time>
   <time name="total">   20.64   20.69</time>
   <energy>
    <i name="e_fr_energy">   -186.92677549 </i>
    <i name="e_wo_entrp">   -186.58210007 </i>
    <i name="e_0_energy">   -186.75443778 </i>
   </energy>
  </scstep>
  <scstep>
   <time name="dav">   17.73   17.77</time>
   <time name="total">   18.26   18.32</time>
   <energy>
    <i name="e_fr_energy">   -186.92710801 </i>
    <i name="e_wo_entrp">   -186.58240794 </i>
    <i name="e_0_energy">   -186.75475797 </i>
   </energy>
  </scstep>
  <scstep>
   <time name="dav">   18.99   19.03</time>
   <time name="total">   19.52   19.58</time>
   <energy>
    <i name="e_fr_energy">   -186.92730052 </i>
    <i name="e_wo_entrp">   -186.58259568 </i>
    <i name="e_0_energy">   -186.75494810 </i>
   </energy>
  </scstep>
  <scstep>
   <time name="dav">   18.40   18.45</time>
   <time name="total">   18.94   18.99</time>
   <energy>
    <i name="e_fr_energy">   -186.92751211 </i>
    <i name="e_wo_entrp">   -186.58281146 </i>
    <i name="e_0_energy">   -186.75516179 </i>
   </energy>
  </scstep>
  <scstep>
   <time name="dav">   18.96   19.01</time>
   <time name="total">   19.00   19.05</time>
   <energy>
    <i name="alphaZ">     81.65567618 </i>
    <i name="ewald">  41888.36874788 </i>
    <i name="hartreedc"> -47831.61713024 </i>
    <i name="XCdc">   -231.60174601 </i>
    <i name="pawpsdc">   4192.24997340 </i>
    <i name="pawaedc">  -3610.28884087 </i>
    <i name="eentropy">     -0.34470417 </i>
    <i name="bandstr">  -1436.79210253 </i>
    <i name="atom">   6761.44252427 </i>
    <i name="e_fr_energy">   -186.92760208 </i>
    <i name="e_wo_entrp">   -186.58289791 </i>
    <i name="e_0_energy">   -186.75525000 </i>
   </energy>
  </scstep>
  <structure>
   <crystal>
    <varray name="basis" >
     <v>       8.66999996       5.03999989       0.00000000 </v>
     <v>      -8.66999982       5.04000013       0.00000000 </v>
     <v>       0.00000000       0.00000000      30.00000000 </v>
    </varray>
    <i name="volume">   2621.80797419 </i>
    <varray name="rec_basis" >
     <v>       0.05767013       0.09920635       0.00000000 </v>
     <v>      -0.05767013       0.09920635       0.00000000 </v>
     <v>       0.00000000       0.00000000       0.03333333 </v>
    </varray>
   </crystal>
   <varray name="positions" >
    <v>       0.00000000       0.66666669       0.00000000 </v>
    <v>       0.33333334       0.33333334       0.00000000 </v>
    <v>       0.66666669       0.00000000       0.00000000 </v>
    <v>       0.33333334       0.00000000       0.00000000 </v>
    <v>       0.33333334       0.66666669       0.00000000 </v>
    <v>       0.00000000       0.00000000       0.00000000 </v>
    <v>       1.00000000       0.33333334       0.00000000 </v>
    <v>       0.66666669       0.33333334       0.00000000 </v>
    <v>       0.66666669       0.66666669       0.00000000 </v>
    <v>       0.11068511       0.22244981       0.95539999 </v>
    <v>       0.22244981       0.11068511       0.04460000 </v>
    <v>       0.11068511       0.55578315       0.95539999 </v>
    <v>       0.22244981       0.44401845       0.04460000 </v>
    <v>       0.11068511       0.88911647       0.95539999 </v>
    <v>       0.22244981       0.77735180       0.04460000 </v>
    <v>       0.44401845       0.22244981       0.95539999 </v>
    <v>       0.55578315       0.11068511       0.04460000 </v>
    <v>       0.44401845       0.55578315       0.95539999 </v>
    <v>       0.55578315       0.44401845       0.04460000 </v>
    <v>       0.44401845       0.88911647       0.95539999 </v>
    <v>       0.55578315       0.77735180       0.04460000 </v>
    <v>       0.77735180       0.22244981       0.95539999 </v>
    <v>       0.88911647       0.11068511       0.04460000 </v>
    <v>       0.77735180       0.55578315       0.95539999 </v>
    <v>       0.88911647       0.44401845       0.04460000 </v>
    <v>       0.77735180       0.88911647       0.95539999 </v>
    <v>       0.88911647       0.77735180       0.04460000 </v>
   </varray>
  </structure>
  <varray name="forces" >
   <v>       0.00002974       0.48477483      -0.00000352 </v>
   <v>       0.00697442      -0.23645463      -0.00469679 </v>
   <v>      -0.00697942      -0.23642116       0.00468688 </v>
   <v>      -0.00001102      -0.28997149      -0.00000343 </v>
   <v>      -0.25840993       0.14102461      -0.03824315 </v>
   <v>       0.25839298       0.14104867       0.03823509 </v>
   <v>       0.28871937       0.15471876       0.02654266 </v>
   <v>       0.00000841      -0.32532291      -0.00000324 </v>
   <v>      -0.28870054       0.15473266      -0.02655061 </v>
   <v>       0.37649970       0.72393112      -2.19502548 </v>
   <v>      -0.53464783       0.71295695       2.16477818 </v>
   <v>      -0.69174647      -0.15134732      -2.11797830 </v>
   <v>       0.68237186      -0.15083756       2.12530690 </v>
   <v>       0.53113348      -0.71707667      -2.19122458 </v>
   <v>      -0.53112832      -0.71708358       2.19124540 </v>
   <v>      -0.68960699       0.16073739      -2.12019276 </v>
   <v>       0.68961438       0.16073114       2.12018337 </v>
   <v>       0.63158921      -0.57037542      -2.12769488 </v>
   <v>      -0.47718211      -0.59970008       2.17293328 </v>
   <v>       0.53464480       0.71299151      -2.16477568 </v>
   <v>      -0.37652694       0.72395081       2.19504322 </v>
   <v>       0.47719534      -0.59968589      -2.17291852 </v>
   <v>      -0.63159470      -0.57036103       2.12767264 </v>
   <v>       0.48613510       0.59757617      -2.15015448 </v>
   <v>      -0.48611985       0.59759224       2.15013778 </v>
   <v>      -0.68240614      -0.15079778      -2.12530463 </v>
   <v>       0.69175147      -0.15133133       2.11800465 </v>
  </varray>
  <varray name="stress" >
   <v>       7.33988109       0.00000186      -1.58885530 </v>
   <v>       0.00000182       4.42390384       0.00000156 </v>
   <v>      -1.58885525       0.00000142      30.25801917 </v>
  </varray>
  <energy>
   <i name="e_fr_energy">   -186.92760208 </i>
   <i name="e_wo_entrp">   -186.75525000 </i>
   <i name="e_0_energy">     -0.34470417 </i>
  </energy>
  <time name="totalsc">  774.69  776.77</time>
 </calculation>
 <calculation>
  <scstep>
   <time name="dav">   21.60   21.65</time>
   <time name="total">   22.14   22.19</time>
   <energy>
    <i name="alphaZ">     78.91928061 </i>
    <i name="ewald">  39381.01042228 </i>
    <i name="hartreedc"> -45338.86020843 </i>
    <i name="XCdc">   -239.04173525 </i>
    <i name="pawpsdc">   4192.23482775 </i>
    <i name="pawaedc">  -3610.27404707 </i>
    <i name="eentropy">     -0.28559738 </i>
    <i name="bandstr">  -1412.63243157 </i>
    <i name="atom">   6761.44252427 </i>
    <i name="e_fr_energy">   -187.48696479 </i>
    <i name="e_wo_entrp">   -187.20136741 </i>
    <i name="e_0_energy">   -187.34416610 </i>
   </energy>
  </scstep>
  <scstep>
   <time name="dav">   31.52   31.60</time>
   <time name="total">   32.06   32.14</time>
   <energy>
    <i name="e_fr_energy">   -189.41133367 </i>
    <i name="e_wo_entrp">   -189.08806270 </i>
    <i name="e_0_energy">   -189.24969819 </i>
   </energy>
  </scstep>
  <scstep>
   <time name="dav">   30.25   30.33</time>
   <time name="total">   30.80   30.88</time>
   <energy>
    <i name="e_fr_energy">   -189.39206244 </i>
    <i name="e_wo_entrp">   -189.10213937 </i>
    <i name="e_0_energy">   -189.24710090 </i>
   </energy>
  </scstep>
  <scstep>
   <time name="dav">   29.77   29.84</time>
   <time name="total">   30.31   30.39</time>
   <energy>
    <i name="e_fr_energy">   -188.76278424 </i>
    <i name="e_wo_entrp">   -188.47984696 </i>
    <i name="e_0_energy">   -188.62131560 </i>
   </energy>
  </scstep>
  <scstep>
   <time name="dav">   25.90   25.96</time>
   <time name="total">   26.45   26.52</time>
   <energy>
    <i name="e_fr_energy">   -188.77407937 </i>
    <i name="e_wo_entrp">   -188.48442100 </i>
    <i name="e_0_energy">   -188.62925018 </i>
   </energy>
  </scstep>
  <scstep>
   <time name="dav">   29.70   29.77</time>
   <time name="total">   30.24   30.32</time>
   <energy>
    <i name="e_fr_energy">   -188.71733939 </i>
    <i name="e_wo_entrp">   -188.43131553 </i>
    <i name="e_0_energy">   -188.57432746 </i>
   </energy>
  </scstep>
  <scstep>
   <time name="dav">   29.87   29.95</time>
   <time name="total">   30.42   30.50</time>
   <energy>
    <i name="e_fr_energy">   -188.71997472 </i>
    <i name="e_wo_entrp">   -188.43464092 </i>
    <i name="e_0_energy">   -188.57730782 </i>
   </energy>
  </scstep>
  <scstep>
   <time name="dav">   31.43   31.50</time>
   <time name="total">   31.97   32.06</time>
   <energy>
    <i name="e_fr_energy">   -188.67650665 </i>
    <i name="e_wo_entrp">   -188.39218611 </i>
    <i name="e_0_energy">   -188.53434638 </i>
   </energy>
  </scstep>
  <scstep>
   <time name="dav">   27.15   27.21</time>
   <time name="total">   27.69   27.77</time>
   <energy>
    <i name="e_fr_energy">   -188.67448444 </i>
    <i name="e_wo_entrp">   -188.38996927 </i>
    <i name="e_0_energy">   -188.53222686 </i>
   </energy>
  </scstep>
  <scstep>
   <time name="dav">   30.41   30.48</time>
   <time name="total">   30.95   31.03</time>
   <energy>
    <i name="e_fr_energy">   -188.67406692 </i>
    <i name="e_wo_entrp">   -188.39010789 </i>
    <i name="e_0_energy">   -188.53208741 </i>
   </energy>
  </scstep>
  <scstep>
   <time name="dav">   29.38   29.45</time>
   <time name="total">   29.92   30.00</time>
   <energy>
    <i name="e_fr_energy">   -188.67419367 </i>
    <i name="e_wo_entrp">   -188.39033979 </i>
    <i name="e_0_energy">   -188.53226673 </i>
   </energy>
  </scstep>
  <scstep>
   <time name="dav">   21.81   21.87</time>
   <time name="total">   21.85   21.91</time>
   <energy>
    <i name="alphaZ">     78.91928061 </i>
    <i name="ewald">  39381.01042228 </i>
    <i name="hartreedc"> -45349.48754959 </i>
    <i name="XCdc">   -237.96475261 </i>
    <i name="pawpsdc">   3950.66986939 </i>
    <i name="pawaedc">  -3365.19691223 </i>
    <i name="eentropy">     -0.28393564 </i>
    <i name="bandstr">  -1407.78314218 </i>
    <i name="atom">   6761.44252427 </i>
    <i name="e_fr_energy">   -188.67419569 </i>
    <i name="e_wo_entrp">   -188.39026005 </i>
    <i name="e_0_energy">   -188.53222787 </i>
   </energy>
  </scstep>
  <structure>
   <crystal>
    <varray name="basis" >
     <v>       8.85606549       5.10519189       0.00000000 </v>
     <v>      -8.85606529       5.10519203       0.00000000 </v>
     <v>       0.00000000       0.00000000      30.00000000 </v>
    </varray>
    <i name="volume">   2712.71483064 </i>
    <varray name="rec_basis" >
     <v>       0.05645848       0.09793951       0.00000000 </v>
     <v>      -0.05645848       0.09793951       0.00000000 </v>
     <v>       0.00000000       0.00000000       0.03333333 </v>
    </varray>
   </crystal>
   <varray name="positions" >
    <v>       0.00232020       0.66898673      -0.00000001 </v>
    <v>       0.33222108       0.33218227      -0.00000755 </v>
    <v>       0.66551576      -0.00111209       0.00000754 </v>
    <v>       0.33194552      -0.00138777      -0.00000001 </v>
    <v>       0.33328935       0.66806056      -0.00006150 </v>
    <v>       0.00139395      -0.00004383       0.00006149 </v>
    <v>       1.00154374       0.33327056       0.00004268 </v>
    <v>       0.66510972       0.33177633      -0.00000001 </v>
    <v>       0.66660402       0.66821044      -0.00004270 </v>
    <v>       0.11519731       0.22486705       0.95187019 </v>
    <v>       0.22437453       0.11558478       0.04808115 </v>
    <v>       0.10803622       0.55698336       0.95199409 </v>
    <v>       0.22362637       0.44139808       0.04801768 </v>
    <v>       0.10873090       0.88420685       0.95187631 </v>
    <v>       0.21754018       0.77539753       0.04812372 </v>
    <v>       0.44286914       0.22513769       0.95199053 </v>
    <v>       0.55847103       0.10953575       0.04800944 </v>
    <v>       0.44304583       0.55129617       0.95197847 </v>
    <v>       0.55158540       0.44247590       0.04809427 </v>
    <v>       0.44891828       0.89104136       0.95191884 </v>
    <v>       0.55820041       0.78186417       0.04812982 </v>
    <v>       0.77580935       0.21825209       0.95190574 </v>
    <v>       0.88462953       0.10971257       0.04802148 </v>
    <v>       0.78156429       0.55729063       0.95194235 </v>
    <v>       0.89062407       0.44823098       0.04805761 </v>
    <v>       0.77473152       0.89029331       0.95198231 </v>
    <v>       0.89031676       0.77470297       0.04800594 </v>
   </varray>
  </structure>
  <varray name="forces" >
   <v>      -0.00002314       0.45294356      -0.00044496 </v>
   <v>       0.00279925      -0.22841230       0.00851770 </v>
   <v>      -0.00281771      -0.22886276      -0.00807401 </v>
   <v>       0.00391987      -0.25629009       0.00012703 </v>
   <v>      -0.20886657       0.13879320      -0.07875470 </v>
   <v>       0.20520554       0.13116236       0.07887149 </v>
   <v>       0.22107435       0.11458770       0.09647854 </v>
   <v>       0.00439433      -0.24294057      -0.00011603 </v>
   <v>      -0.22580224       0.12171327      -0.09658881 </v>
   <v>      -0.09550649       0.06482621      -0.06546184 </v>
   <v>      -0.01602247       0.06358627       0.09269341 </v>
   <v>       0.01268109      -0.11822796       0.00386108 </v>
   <v>      -0.02114885      -0.09982551      -0.00392985 </v>
   <v>       0.03398239      -0.06806707      -0.16941663 </v>
   <v>      -0.03418911      -0.06836849       0.17035478 </v>
   <v>       0.02110723       0.10152801      -0.00964021 </v>
   <v>      -0.01789914       0.10155408       0.00805117 </v>
   <v>       0.08252931       0.06470741       0.09942243 </v>
   <v>       0.04072764       0.04808575      -0.12886056 </v>
   <v>       0.01793252       0.06690476      -0.09236703 </v>
   <v>       0.09382806       0.06777847       0.06401549 </v>
   <v>      -0.03886877       0.04506515       0.12963978 </v>
   <v>      -0.08413162       0.06197596      -0.10129726 </v>
   <v>      -0.04687333      -0.05835819       0.22612638 </v>
   <v>       0.04668478      -0.05795769      -0.22499336 </v>
   <v>       0.01753607      -0.09973058       0.00466901 </v>
   <v>      -0.01225303      -0.11817096      -0.00288304 </v>
  </varray>
  <varray name="stress" >
   <v>     -19.82939175       0.00361971      -0.00620785 </v>
   <v>       0.00361958     -19.42075090      -0.00008247 </v>
   <v>      -0.00620786      -0.00008252      -1.68429123 </v>
  </varray>
  <energy>
   <i name="e_fr_energy">   -188.67419569 </i>
   <i name="e_wo_entrp">   -188.53222787 </i>
   <i name="e_0_energy">     -0.28393564 </i>
  </energy>
  <time name="totalsc">  387.07  388.10</time>
 </calculation>
 <calculation>
  <scstep>
   <time name="dav">   23.10   23.15</time>
   <time name="total">   23.63   23.69</time>
   <energy>
    <i name="alphaZ">     82.33365813 </i>
    <i name="ewald">  41298.09801974 </i>
    <i name="hartreedc"> -47297.09064842 </i>
    <i name="XCdc">   -233.85516894 </i>
    <i name="pawpsdc">   3950.26453067 </i>
    <i name="pawaedc">  -3364.78833102 </i>
    <i name="eentropy">     -0.23493071 </i>
    <i name="bandstr">  -1386.74382916 </i>
    <i name="atom">   6761.44252427 </i>
    <i name="e_fr_energy">   -190.57417544 </i>
    <i name="e_wo_entrp">   -190.33924473 </i>
    <i name="e_0_energy">   -190.45671009 </i>
   </energy>
  </scstep>
  <scstep>
   <time name="dav">   28.16   28.23</time>
   <time name="total">   28.67   28.75</time>
   <energy>
    <i name="e_fr_energy">   -190.67732922 </i>
    <i name="e_wo_entrp">   -190.43069177 </i>
    <i name="e_0_energy">   -190.55401050 </i>
   </energy>
  </scstep>
  <scstep>
   <time name="dav">   29.94   30.02</time>
   <time name="total">   30.47   30.55</time>
   <energy>
    <i name="e_fr_energy">   -190.02855909 </i>
    <i name="e_wo_entrp">   -189.78407234 </i>
    <i name="e_0_energy">   -189.90631572 </i>
   </energy>
  </scstep>
  <scstep>
   <time name="dav">   29.96   30.03</time>
   <time name="total">   30.49   30.57</time>
   <energy>
    <i name="e_fr_energy">   -189.84485891 </i>
    <i name="e_wo_entrp">   -189.60264834 </i>
    <i name="e_0_energy">   -189.72375362 </i>
   </energy>
  </scstep>
  <scstep>
   <time name="dav">   29.45   29.52</time>
   <time name="total">   29.98   30.06</time>
   <energy>
    <i name="e_fr_energy">   -189.76577513 </i>
    <i name="e_wo_entrp">   -189.52462129 </i>
    <i name="e_0_energy">   -189.64519821 </i>
   </energy>
  </scstep>
  <scstep>
   <time name="dav">   29.35   29.42</time>
   <time name="total">   29.88   29.96</time>
   <energy>
    <i name="e_fr_energy">   -189.74905935 </i>
    <i name="e_wo_entrp">   -189.50921827 </i>
    <i name="e_0_energy">   -189.62913881 </i>
   </energy>
  </scstep>
  <scstep>
   <time name="dav">   28.51   28.58</time>
   <time name="total">   29.04   29.12</time>
   <energy>
    <i name="e_fr_energy">   -189.74320819 </i>
    <i name="e_wo_entrp">   -189.50387521 </i>
    <i name="e_0_energy">   -189.62354170 </i>
   </energy>
  </scstep>
  <scstep>
   <time name="dav">   29.82   29.89</time>
   <time name="total">   30.35   30.43</time>
   <energy>
    <i name="e_fr_energy">   -189.74324910 </i>
    <i name="e_wo_entrp">   -189.50394571 </i>
    <i name="e_0_energy">   -189.62359740 </i>
   </energy>
  </scstep>
  <scstep>
   <time name="dav">   26.56   26.62</time>
   <time name="total">   27.09   27.16</time>
   <energy>
    <i name="e_fr_energy">   -189.74350080 </i>
    <i name="e_wo_entrp">   -189.50402291 </i>
    <i name="e_0_energy">   -189.62376186 </i>
   </energy>
  </scstep>
  <scstep>
   <time name="dav">   26.34   26.40</time>
   <time name="total">   26.87   26.94</time>
   <energy>
    <i name="e_fr_energy">   -189.74381279 </i>
    <i name="e_wo_entrp">   -189.50433373 </i>
    <i name="e_0_energy">   -189.62407326 </i>
   </energy>
  </scstep>
  <scstep>
   <time name="dav">   23.21   23.27</time>
   <time name="total">   23.74   23.81</time>
   <energy>
    <i name="e_fr_energy">   -189.74326641 </i>
    <i name="e_wo_entrp">   -189.50393388 </i>
    <i name="e_0_energy">   -189.62360014 </i>
   </energy>
  </scstep>
  <scstep>
   <time name="dav">   16.71   16.75</time>
   <time name="total">   16.75   16.79</time>
   <energy>
    <i name="alphaZ">     82.33365813 </i>
    <i name="ewald">  41298.09801974 </i>
    <i name="hartreedc"> -47270.70586120 </i>
    <i name="XCdc">   -235.24314002 </i>
    <i name="pawpsdc">   4038.71655182 </i>
    <i name="pawaedc">  -3454.43112059 </i>
    <i name="eentropy">     -0.23936777 </i>
    <i name="bandstr">  -1409.71455946 </i>
    <i name="atom">   6761.44252427 </i>
    <i name="e_fr_energy">   -189.74329507 </i>
    <i name="e_wo_entrp">   -189.50392731 </i>
    <i name="e_0_energy">   -189.62361119 </i>
   </energy>
  </scstep>
  <structure>
   <crystal>
    <varray name="basis" >
     <v>       8.66857850       4.99936299       0.00000000 </v>
     <v>      -8.66853885       4.99929468       0.00000000 </v>
     <v>       0.00000000       0.00000000      30.00000000 </v>
    </varray>
    <i name="volume">   2600.21852299 </i>
    <varray name="rec_basis" >
     <v>       0.05767932       0.10001320       0.00000000 </v>
     <v>      -0.05768011       0.10001365       0.00000000 </v>
     <v>       0.00000000       0.00000000       0.03333333 </v>
    </varray>
   </crystal>
   <varray name="positions" >
    <v>       0.00307552       0.66974208      -0.00000026 </v>
    <v>       0.33184287       0.33179868      -0.00000272 </v>
    <v>       0.66513140      -0.00149103       0.00000295 </v>
    <v>       0.33152189      -0.00181893       0.00000007 </v>
    <v>       0.33332001       0.66849280      -0.00010620 </v>
    <v>       0.00180994      -0.00002237       0.00010625 </v>
    <v>       1.00194735       0.33324913       0.00009744 </v>
    <v>       0.66470882       0.33136698      -0.00000007 </v>
    <v>       0.66658993       0.66863048      -0.00009752 </v>
    <v>       0.11521360       0.22506696       0.95183304 </v>
    <v>       0.22446516       0.11570622       0.04813376 </v>
    <v>       0.10785125       0.55677401       0.95199629 </v>
    <v>       0.22343957       0.44125194       0.04801545 </v>
    <v>       0.10865005       0.88406068       0.95178015 </v>
    <v>       0.21739330       0.77531639       0.04822040 </v>
    <v>       0.44305874       0.22528671       0.95198506 </v>
    <v>       0.55862317       0.10972231       0.04801401 </v>
    <v>       0.44323308       0.55132474       0.95203490 </v>
    <v>       0.55170474       0.44251694       0.04802113 </v>
    <v>       0.44904709       0.89113569       0.95186641 </v>
    <v>       0.55840363       0.78188700       0.04816616 </v>
    <v>       0.77584713       0.21836461       0.95197932 </v>
    <v>       0.88465201       0.10989680       0.04796399 </v>
    <v>       0.78142191       0.55723837       0.95207069 </v>
    <v>       0.89057229       0.44808945       0.04792991 </v>
    <v>       0.77458206       0.89011014       0.95198496 </v>
    <v>       0.89010792       0.77451768       0.04800430 </v>
   </varray>
  </structure>
  <varray name="forces" >
   <v>      -0.00006354       0.44001655      -0.00020122 </v>
   <v>       0.00317081      -0.22654224       0.00695373 </v>
   <v>      -0.00312586      -0.22651986      -0.00668783 </v>
   <v>       0.00045080      -0.23513166      -0.00005956 </v>
   <v>      -0.18833095       0.12954426      -0.06366501 </v>
   <v>       0.18803403       0.12882084       0.06362092 </v>
   <v>       0.20269631       0.10039184       0.08442479 </v>
   <v>       0.00019493      -0.22365862       0.00003224 </v>
   <v>      -0.20302999       0.10094320      -0.08438315 </v>
   <v>       0.02912481       0.11834518      -0.57096584 </v>
   <v>      -0.04110051       0.13125775       0.58668925 </v>
   <v>      -0.09558290      -0.05417769      -0.49122044 </v>
   <v>       0.09121032      -0.00475371       0.49215788 </v>
   <v>       0.06802808      -0.12381766      -0.67072022 </v>
   <v>      -0.06797970      -0.12385933       0.67091840 </v>
   <v>      -0.08985116       0.01147403      -0.50946860 </v>
   <v>       0.09015288       0.01134161       0.51000118 </v>
   <v>       0.07253771      -0.07166805      -0.38650983 </v>
   <v>      -0.04486049      -0.06754816       0.36824881 </v>
   <v>       0.04116066       0.13146960      -0.58730085 </v>
   <v>      -0.02924001       0.11860291       0.57151424 </v>
   <v>       0.04503938      -0.06777888      -0.36919411 </v>
   <v>      -0.07262749      -0.07199784       0.38706554 </v>
   <v>       0.02863859       0.06711246      -0.26082825 </v>
   <v>      -0.02871513       0.06698954       0.26112554 </v>
   <v>      -0.09138464      -0.00455686      -0.49300035 </v>
   <v>       0.09545305      -0.05429921       0.49145273 </v>
  </varray>
  <varray name="stress" >
   <v>     -10.13370933      -0.00096163      -0.01263526 </v>
   <v>      -0.00096145      -9.80069946      -0.00017801 </v>
   <v>      -0.01263517      -0.00017811       6.47689470 </v>
  </varray>
  <energy>
   <i name="e_fr_energy">   -189.74329507 </i>
   <i name="e_wo_entrp">   -189.62361119 </i>
   <i name="e_0_energy">     -0.23936777 </i>
  </energy>
  <time name="totalsc">  368.82  369.80</time>
 </calculation>
 <calculation>
  <scstep>
   <time name="dav">   21.61   21.66</time>
   <time name="total">   22.14   22.20</time>
   <energy>
    <i name="alphaZ">     85.80282293 </i>
    <i name="ewald">  42824.57510842 </i>
    <i name="hartreedc"> -48841.61336939 </i>
    <i name="XCdc">   -232.95906501 </i>
    <i name="pawpsdc">   4038.68449248 </i>
    <i name="pawaedc">  -3454.39604485 </i>
    <i name="eentropy">     -0.19340346 </i>
    <i name="bandstr">  -1372.57912108 </i>
    <i name="atom">   6761.44252427 </i>
    <i name="e_fr_energy">   -191.23605568 </i>
    <i name="e_wo_entrp">   -191.04265223 </i>
    <i name="e_0_energy">   -191.13935395 </i>
   </energy>
  </scstep>
  <scstep>
   <time name="dav">   32.88   32.96</time>
   <time name="total">   33.39   33.48</time>
   <energy>
    <i name="e_fr_energy">   -191.35059448 </i>
    <i name="e_wo_entrp">   -191.13808087 </i>
    <i name="e_0_energy">   -191.24433768 </i>
   </energy>
  </scstep>
  <scstep>
   <time name="dav">   29.64   29.71</time>
   <time name="total">   30.16   30.24</time>
   <energy>
    <i name="e_fr_energy">   -191.00075485 </i>
    <i name="e_wo_entrp">   -190.79355351 </i>
    <i name="e_0_energy">   -190.89715418 </i>
   </energy>
  </scstep>
  <scstep>
   <time name="dav">   30.02   30.10</time>
   <time name="total">   30.55   30.63</time>
   <energy>
    <i name="e_fr_energy">   -190.75838760 </i>
    <i name="e_wo_entrp">   -190.55670164 </i>
    <i name="e_0_energy">   -190.65754462 </i>
   </energy>
  </scstep>
  <scstep>
   <time name="dav">   29.75   29.82</time>
   <time name="total">   30.27   30.35</time>
   <energy>
    <i name="e_fr_energy">   -190.66608600 </i>
    <i name="e_wo_entrp">   -190.46415160 </i>
    <i name="e_0_energy">   -190.56511880 </i>
   </energy>
  </scstep>
  <scstep>
   <time name="dav">   28.94   29.01</time>
   <time name="total">   29.46   29.54</time>
   <energy>
    <i name="e_fr_energy">   -190.65662387 </i>
    <i name="e_wo_entrp">   -190.45516536 </i>
    <i name="e_0_energy">   -190.55589461 </i>
   </energy>
  </scstep>
  <scstep>
   <time name="dav">   28.24   28.31</time>
   <time name="total">   28.76   28.84</time>
   <energy>
    <i name="e_fr_energy">   -190.64285058 </i>
    <i name="e_wo_entrp">   -190.44259051 </i>
    <i name="e_0_energy">   -190.54272055 </i>
   </energy>
  </scstep>
  <scstep>
   <time name="dav">   29.93   30.00</time>
   <time name="total">   30.45   30.53</time>
   <energy>
    <i name="e_fr_energy">   -190.63800675 </i>
    <i name="e_wo_entrp">   -190.43734843 </i>
    <i name="e_0_energy">   -190.53767759 </i>
   </energy>
  </scstep>
  <scstep>
   <time name="dav">   25.67   25.74</time>
   <time name="total">   26.20   26.27</time>
   <energy>
    <i name="e_fr_energy">   -190.63849337 </i>
    <i name="e_wo_entrp">   -190.43801720 </i>
    <i name="e_0_energy">   -190.53825528 </i>
   </energy>
  </scstep>
  <scstep>
   <time name="dav">   26.71   26.78</time>
   <time name="total">   27.23   27.30</time>
   <energy>
    <i name="e_fr_energy">   -190.63835617 </i>
    <i name="e_wo_entrp">   -190.43791762 </i>
    <i name="e_0_energy">   -190.53813690 </i>
   </energy>
  </scstep>
  <scstep>
   <time name="dav">   21.12   21.17</time>
   <time name="total">   21.15   21.21</time>
   <energy>
    <i name="alphaZ">     85.80282293 </i>
    <i name="ewald">  42824.57510842 </i>
    <i name="hartreedc"> -48813.19863327 </i>
    <i name="XCdc">   -234.28645665 </i>
    <i name="pawpsdc">   4062.44961720 </i>
    <i name="pawaedc">  -3478.32596213 </i>
    <i name="eentropy">     -0.20043491 </i>
    <i name="bandstr">  -1398.89692529 </i>
    <i name="atom">   6761.44252427 </i>
    <i name="e_fr_energy">   -190.63833944 </i>
    <i name="e_wo_entrp">   -190.43790452 </i>
    <i name="e_0_energy">   -190.53812198 </i>
   </energy>
  </scstep>
  <structure>
   <crystal>
    <varray name="basis" >
     <v>       8.48682107       4.89984045       0.00000000 </v>
     <v>      -8.48689363       4.89996663       0.00000000 </v>
     <v>       0.00000000       0.00000000      30.00000000 </v>
    </varray>
    <i name="volume">   2495.08694037 </i>
    <varray name="rec_basis" >
     <v>       0.05891538       0.10204326       0.00000000 </v>
     <v>      -0.05891386       0.10204239       0.00000000 </v>
     <v>       0.00000000       0.00000000       0.03333333 </v>
    </varray>
   </crystal>
   <varray name="positions" >
    <v>       0.00580388       0.67247104      -0.00000047 </v>
    <v>       0.33043804       0.33036981       0.00001037 </v>
    <v>       0.66370412      -0.00289480      -0.00000973 </v>
    <v>       0.33009614      -0.00323792      -0.00000022 </v>
    <v>       0.33345772       0.66993448      -0.00022534 </v>
    <v>       0.00326817       0.00012432       0.00022516 </v>
    <v>       1.00324879       0.33313638       0.00026222 </v>
    <v>       0.66334837       0.33001725       0.00000012 </v>
    <v>       0.66646930       0.66991377      -0.00026208 </v>
    <v>       0.11637603       0.22565819       0.95021757 </v>
    <v>       0.22527349       0.11688459       0.04977201 </v>
    <v>       0.10716944       0.55709716       0.95055508 </v>
    <v>       0.22414075       0.44096796       0.04945946 </v>
    <v>       0.10802874       0.88284846       0.94996141 </v>
    <v>       0.21618202       0.77469492       0.05003892 </v>
    <v>       0.44241927       0.22561850       0.95050196 </v>
    <v>       0.55895062       0.10908471       0.04950002 </v>
    <v>       0.44268945       0.55028490       0.95081864 </v>
    <v>       0.55070478       0.44208919       0.04920906 </v>
    <v>       0.45021654       0.89194002       0.95022610 </v>
    <v>       0.55899157       0.78304244       0.04978446 </v>
    <v>       0.77542315       0.21737197       0.95078796 </v>
    <v>       0.88361799       0.10935527       0.04918348 </v>
    <v>       0.78237053       0.55776134       0.95111418 </v>
    <v>       0.89109306       0.44903610       0.04888633 </v>
    <v>       0.77430392       0.89080848       0.95053786 </v>
    <v>       0.89042858       0.77383593       0.04944535 </v>
   </varray>
  </structure>
  <varray name="forces" >
   <v>      -0.00013293       0.41448038      -0.00062266 </v>
   <v>       0.01824541      -0.22436076       0.00318521 </v>
   <v>      -0.01800927      -0.22590313      -0.00254790 </v>
   <v>       0.00622717      -0.19302179       0.00028582 </v>
   <v>      -0.17850858       0.14111460      -0.01509552 </v>
   <v>       0.17314746       0.12904615       0.01516797 </v>
   <v>       0.20987835       0.08866004       0.03766858 </v>
   <v>       0.00709249      -0.25928880      -0.00014311 </v>
   <v>      -0.21742889       0.09955093      -0.03801294 </v>
   <v>       0.04776722       0.02584555      -0.39983340 </v>
   <v>       0.02078410       0.02914986       0.44861106 </v>
   <v>      -0.02431747       0.00201118      -0.32326987 </v>
   <v>       0.02528086       0.05876642       0.32645528 </v>
   <v>       0.02485197      -0.01737959      -0.50234489 </v>
   <v>      -0.02520820      -0.01736438       0.50339497 </v>
   <v>      -0.01887566      -0.06482808      -0.35576141 </v>
   <v>       0.02246323      -0.06439016       0.35180266 </v>
   <v>      -0.01495859      -0.03509691      -0.25330175 </v>
   <v>      -0.05309601      -0.03060093       0.22141305 </v>
   <v>      -0.01889588       0.03262674      -0.44614650 </v>
   <v>      -0.04960776       0.02930021       0.39640960 </v>
   <v>       0.05489705      -0.03402262      -0.21903134 </v>
   <v>       0.01305594      -0.03784767       0.24965579 </v>
   <v>       0.02205334       0.04592269      -0.12701717 </v>
   <v>      -0.02212359       0.04652968       0.12845782 </v>
   <v>      -0.02940353       0.05859020      -0.32410218 </v>
   <v>       0.02482175       0.00251019       0.32472282 </v>
  </varray>
  <varray name="stress" >
   <v>      -5.75219005       0.00791425      -0.07946869 </v>
   <v>       0.00791436      -5.75713477       0.00059563 </v>
   <v>      -0.07946861       0.00059543       4.40311557 </v>
  </varray>
  <energy>
   <i name="e_fr_energy">   -190.63833944 </i>
   <i name="e_wo_entrp">   -190.53812198 </i>
   <i name="e_0_energy">     -0.20043491 </i>
  </energy>
  <time name="totalsc">  351.84  352.77</time>
 </calculation>
 <calculation>
  <scstep>
   <time name="dav">   21.60   21.65</time>
   <time name="total">   22.12   22.17</time>
   <energy>
    <i name="alphaZ">     90.20026450 </i>
    <i name="ewald">  44676.44243978 </i>
    <i name="hartreedc"> -50721.18377483 </i>
    <i name="XCdc">   -231.78625287 </i>
    <i name="pawpsdc">   4062.62402640 </i>
    <i name="pawaedc">  -3478.49735159 </i>
    <i name="eentropy">     -0.17374691 </i>
    <i name="bandstr">  -1351.00298063 </i>
    <i name="atom">   6761.44252427 </i>
    <i name="e_fr_energy">   -191.93485189 </i>
    <i name="e_wo_entrp">   -191.76110497 </i>
    <i name="e_0_energy">   -191.84797843 </i>
   </energy>
  </scstep>
  <scstep>
   <time name="dav">   32.82   32.89</time>
   <time name="total">   33.32   33.40</time>
   <energy>
    <i name="e_fr_energy">   -192.05051014 </i>
    <i name="e_wo_entrp">   -191.85984840 </i>
    <i name="e_0_energy">   -191.95517927 </i>
   </energy>
  </scstep>
  <scstep>
   <time name="dav">   28.86   28.92</time>
   <time name="total">   29.36   29.44</time>
   <energy>
    <i name="e_fr_energy">   -191.73040069 </i>
    <i name="e_wo_entrp">   -191.53903091 </i>
    <i name="e_0_energy">   -191.63471580 </i>
   </energy>
  </scstep>
  <scstep>
   <time name="dav">   29.91   29.98</time>
   <time name="total">   30.42   30.50</time>
   <energy>
    <i name="e_fr_energy">   -191.36143590 </i>
    <i name="e_wo_entrp">   -191.17842123 </i>
    <i name="e_0_energy">   -191.26992857 </i>
   </energy>
  </scstep>
  <scstep>
   <time name="dav">   30.72   30.79</time>
   <time name="total">   31.23   31.31</time>
   <energy>
    <i name="e_fr_energy">   -191.20418296 </i>
    <i name="e_wo_entrp">   -191.02425788 </i>
    <i name="e_0_energy">   -191.11422042 </i>
   </energy>
  </scstep>
  <scstep>
   <time name="dav">   30.62   30.69</time>
   <time name="total">   31.13   31.21</time>
   <energy>
    <i name="e_fr_energy">   -191.20137195 </i>
    <i name="e_wo_entrp">   -191.01730205 </i>
    <i name="e_0_energy">   -191.10933700 </i>
   </energy>
  </scstep>
  <scstep>
   <time name="dav">   30.21   30.28</time>
   <time name="total">   30.71   30.79</time>
   <energy>
    <i name="e_fr_energy">   -191.16803389 </i>
    <i name="e_wo_entrp">   -190.98597155 </i>
    <i name="e_0_energy">   -191.07700272 </i>
   </energy>
  </scstep>
  <scstep>
   <time name="dav">   27.71   27.78</time>
   <time name="total">   28.22   28.29</time>
   <energy>
    <i name="e_fr_energy">   -191.16283048 </i>
    <i name="e_wo_entrp">   -190.98104819 </i>
    <i name="e_0_energy">   -191.07193933 </i>
   </energy>
  </scstep>
  <scstep>
   <time name="dav">   28.85   28.92</time>
   <time name="total">   29.35   29.43</time>
   <energy>
    <i name="e_fr_energy">   -191.16437533 </i>
    <i name="e_wo_entrp">   -190.98276173 </i>
    <i name="e_0_energy">   -191.07356853 </i>
   </energy>
  </scstep>
  <scstep>
   <time name="dav">   27.83   27.90</time>
   <time name="total">   28.34   28.42</time>
   <energy>
    <i name="e_fr_energy">   -191.16324350 </i>
    <i name="e_wo_entrp">   -190.98168468 </i>
    <i name="e_0_energy">   -191.07246409 </i>
   </energy>
  </scstep>
  <scstep>
   <time name="dav">   17.75   17.79</time>
   <time name="total">   17.78   17.83</time>
   <energy>
    <i name="alphaZ">     90.20026450 </i>
    <i name="ewald">  44676.44243978 </i>
    <i name="hartreedc"> -50686.70196983 </i>
    <i name="XCdc">   -233.36268668 </i>
    <i name="pawpsdc">   4080.57741530 </i>
    <i name="pawaedc">  -3496.47645158 </i>
    <i name="eentropy">     -0.18156629 </i>
    <i name="bandstr">  -1383.10319348 </i>
    <i name="atom">   6761.44252427 </i>
    <i name="e_fr_energy">   -191.16322402 </i>
    <i name="e_wo_entrp">   -190.98165773 </i>
    <i name="e_0_energy">   -191.07244088 </i>
   </energy>
  </scstep>
  <structure>
   <crystal>
    <varray name="basis" >
     <v>       8.27717363       4.77944862       0.00000000 </v>
     <v>      -8.27687156       4.77892612       0.00000000 </v>
     <v>       0.00000000       0.00000000      30.00000000 </v>
    </varray>
    <i name="volume">   2373.44650951 </i>
    <varray name="rec_basis" >
     <v>       0.06040489       0.10461839       0.00000000 </v>
     <v>      -0.06041150       0.10462221       0.00000000 </v>
     <v>       0.00000000       0.00000000       0.03333333 </v>
    </varray>
   </crystal>
   <varray name="positions" >
    <v>       0.01096070       0.67762974      -0.00000251 </v>
    <v>       0.32776755       0.32746592       0.00002376 </v>
    <v>       0.66078672      -0.00558199      -0.00002093 </v>
    <v>       0.32772038      -0.00567984       0.00000056 </v>
    <v>       0.33390900       0.67289734      -0.00029796 </v>
    <v>       0.00609308       0.00049313       0.00029785 </v>
    <v>       1.00579686       0.33274876       0.00042835 </v>
    <v>       0.66027997       0.32687498      -0.00000021 </v>
    <v>       0.66614038       0.67259968      -0.00042924 </v>
    <v>       0.11755016       0.22575892       0.94799560 </v>
    <v>       0.22605565       0.11757590       0.05216189 </v>
    <v>       0.10685851       0.55764460       0.94865550 </v>
    <v>       0.22548146       0.44143305       0.05137172 </v>
    <v>       0.10774506       0.88200695       0.94732989 </v>
    <v>       0.21533966       0.77441382       0.05267349 </v>
    <v>       0.44108324       0.22507134       0.94847380 </v>
    <v>       0.55842501       0.10773513       0.05151675 </v>
    <v>       0.44174966       0.54942130       0.94923077 </v>
    <v>       0.54940091       0.44182273       0.05068647 </v>
    <v>       0.45094490       0.89274204       0.94784358 </v>
    <v>       0.55911296       0.78425494       0.05199675 </v>
    <v>       0.77513632       0.21603080       0.94931665 </v>
    <v>       0.88272215       0.10840181       0.05076133 </v>
    <v>       0.78364168       0.55844574       0.95003655 </v>
    <v>       0.89178189       0.45031232       0.04996833 </v>
    <v>       0.77474793       0.89216777       0.94863179 </v>
    <v>       0.89098268       0.77352758       0.05134940 </v>
   </varray>
  </structure>
  <varray name="forces" >
   <v>      -0.00035821       0.32181333      -0.00038805 </v>
   <v>       0.08618193      -0.20589971       0.02665443 </v>
   <v>      -0.08635523      -0.20148347      -0.02674224 </v>
   <v>      -0.00572231      -0.00454533      -0.00075683 </v>
   <v>      -0.11721017       0.10610227       0.00981463 </v>
   <v>       0.12129741       0.11414186      -0.00921913 </v>
   <v>       0.18177622       0.08347977       0.02315697 </v>
   <v>      -0.00356752      -0.32341851      -0.00051540 </v>
   <v>      -0.17658866       0.07875350      -0.02224414 </v>
   <v>       0.03922742      -0.03476478      -0.10909707 </v>
   <v>       0.07589261      -0.05988832       0.12319701 </v>
   <v>       0.03609420       0.04047760      -0.01004261 </v>
   <v>      -0.01252312       0.09077980       0.00366108 </v>
   <v>      -0.00941419       0.07214439      -0.15992686 </v>
   <v>       0.01031061       0.07112597       0.16124855 </v>
   <v>       0.02814747      -0.11133946      -0.08188451 </v>
   <v>      -0.03061454      -0.11289808       0.09146386 </v>
   <v>      -0.09761470       0.01224348       0.05140257 </v>
   <v>      -0.04566009       0.00254666      -0.06022768 </v>
   <v>      -0.07767864      -0.06146756      -0.13356123 </v>
   <v>      -0.03786651      -0.03837625       0.11881477 </v>
   <v>       0.04557686       0.00449102       0.04961351 </v>
   <v>       0.09918444       0.01336644      -0.04348936 </v>
   <v>      -0.00436521       0.00606744       0.17648142 </v>
   <v>       0.00326771       0.00612172      -0.17443397 </v>
   <v>       0.01421771       0.09220042      -0.01478123 </v>
   <v>      -0.03563549       0.03822584       0.01180151 </v>
  </varray>
  <varray name="stress" >
   <v>      -0.35492320      -0.01675612       0.05815662 </v>
   <v>      -0.01675605      -0.34419329      -0.00984078 </v>
   <v>       0.05815652      -0.00984108      -0.68201708 </v>
  </varray>
  <energy>
   <i name="e_fr_energy">   -191.16322402 </i>
   <i name="e_wo_entrp">   -191.07244088 </i>
   <i name="e_0_energy">     -0.18156629 </i>
  </energy>
  <time name="totalsc">  353.72  354.66</time>
 </calculation>
 <calculation>
  <scstep>
   <time name="dav">   21.61   21.66</time>
   <time name="total">   22.11   22.17</time>
   <energy>
    <i name="alphaZ">     90.47249311 </i>
    <i name="ewald">  44786.73081728 </i>
    <i name="hartreedc"> -50800.54997279 </i>
    <i name="XCdc">   -233.23012212 </i>
    <i name="pawpsdc">   4080.64829546 </i>
    <i name="pawaedc">  -3496.54339359 </i>
    <i name="eentropy">     -0.18657111 </i>
    <i name="bandstr">  -1379.98748275 </i>
    <i name="atom">   6761.44252427 </i>
    <i name="e_fr_energy">   -191.20341224 </i>
    <i name="e_wo_entrp">   -191.01684113 </i>
    <i name="e_0_energy">   -191.11012669 </i>
   </energy>
  </scstep>
  <scstep>
   <time name="dav">   32.09   32.16</time>
   <time name="total">   32.59   32.68</time>
   <energy>
    <i name="e_fr_energy">   -191.21548557 </i>
    <i name="e_wo_entrp">   -191.02825521 </i>
    <i name="e_0_energy">   -191.12187039 </i>
   </energy>
  </scstep>
  <scstep>
   <time name="dav">   30.14   30.21</time>
   <time name="total">   30.66   30.74</time>
   <energy>
    <i name="e_fr_energy">   -191.21160430 </i>
    <i name="e_wo_entrp">   -191.02544985 </i>
    <i name="e_0_energy">   -191.11852708 </i>
   </energy>
  </scstep>
  <scstep>
   <time name="dav">   28.04   28.10</time>
   <time name="total">   28.54   28.62</time>
   <energy>
    <i name="e_fr_energy">   -191.20760892 </i>
    <i name="e_wo_entrp">   -191.02064510 </i>
    <i name="e_0_energy">   -191.11412701 </i>
   </energy>
  </scstep>
  <scstep>
   <time name="dav">   25.82   25.88</time>
   <time name="total">   26.33   26.40</time>
   <energy>
    <i name="e_fr_energy">   -191.20617979 </i>
    <i name="e_wo_entrp">   -191.01952678 </i>
    <i name="e_0_energy">   -191.11285328 </i>
   </energy>
  </scstep>
  <scstep>
   <time name="dav">   29.90   29.98</time>
   <time name="total">   30.41   30.49</time>
   <energy>
    <i name="e_fr_energy">   -191.20623550 </i>
    <i name="e_wo_entrp">   -191.01931321 </i>
    <i name="e_0_energy">   -191.11277435 </i>
   </energy>
  </scstep>
  <scstep>
   <time name="dav">   26.02   26.08</time>
   <time name="total">   26.52   26.59</time>
   <energy>
    <i name="e_fr_energy">   -191.20568522 </i>
    <i name="e_wo_entrp">   -191.01883527 </i>
    <i name="e_0_energy">   -191.11226025 </i>
   </energy>
  </scstep>
  <scstep>
   <time name="dav">   17.67   17.71</time>
   <time name="total">   17.70   17.75</time>
   <energy>
    <i name="alphaZ">     90.47249311 </i>
    <i name="ewald">  44786.73081728 </i>
    <i name="hartreedc"> -50799.28307283 </i>
    <i name="XCdc">   -233.30838882 </i>
    <i name="pawpsdc">   4080.53105619 </i>
    <i name="pawaedc">  -3496.41536125 </i>
    <i name="eentropy">     -0.18682242 </i>
    <i name="bandstr">  -1381.18896902 </i>
    <i name="atom">   6761.44252427 </i>
    <i name="e_fr_energy">   -191.20572350 </i>
    <i name="e_wo_entrp">   -191.01890107 </i>
    <i name="e_0_energy">   -191.11231229 </i>
   </energy>
  </scstep>
  <structure>
   <crystal>
    <varray name="basis" >
     <v>       8.26434134       4.77195878       0.00000000 </v>
     <v>      -8.26447925       4.77219827       0.00000000 </v>
     <v>       0.00000000       0.00000000      30.00000000 </v>
    </varray>
    <i name="volume">   2366.30489098 </i>
    <varray name="rec_basis" >
     <v>       0.06050190       0.10477702       0.00000000 </v>
     <v>      -0.06049887       0.10477527       0.00000000 </v>
     <v>       0.00000000       0.00000000       0.03333333 </v>
    </varray>
   </crystal>
   <varray name="positions" >
    <v>       0.01286422       0.67953560      -0.00000324 </v>
    <v>       0.32683720       0.32599584       0.00006965 </v>
    <v>       0.65933940      -0.00648871      -0.00006690 </v>
    <v>       0.32759306      -0.00577366      -0.00000071 </v>
    <v>       0.33413002       0.67393049      -0.00028410 </v>
    <v>       0.00717802       0.00074223       0.00028500 </v>
    <v>       1.00689376       0.33262046       0.00047403 </v>
    <v>       0.65843292       0.32504790      -0.00000110 </v>
    <v>       0.66600444       0.67365910      -0.00047339 </v>
    <v>       0.11753929       0.22545845       0.94771640 </v>
    <v>       0.22600404       0.11705738       0.05247040 </v>
    <v>       0.10717141       0.55777727       0.94855679 </v>
    <v>       0.22598602       0.44197164       0.05146001 </v>
    <v>       0.10808576       0.88238115       0.94694964 </v>
    <v>       0.21571116       0.77474641       0.05305607 </v>
    <v>       0.44051797       0.22437260       0.94824821 </v>
    <v>       0.55771090       0.10716881       0.05175835 </v>
    <v>       0.44147097       0.54974470       0.94924849 </v>
    <v>       0.54921431       0.44196151       0.05065021 </v>
    <v>       0.45041332       0.89268799       0.94751761 </v>
    <v>       0.55879794       0.78422152       0.05229226 </v>
    <v>       0.77528471       0.21585393       0.94933496 </v>
    <v>       0.88305557       0.10812392       0.05075684 </v>
    <v>       0.78371874       0.55852246       0.95028547 </v>
    <v>       0.89185561       0.45039317       0.04972301 </v>
    <v>       0.77529882       0.89267516       0.94852470 </v>
    <v>       0.89110490       0.77382712       0.05145123 </v>
   </varray>
  </structure>
  <varray name="forces" >
   <v>      -0.00077892       0.34435280       0.00042833 </v>
   <v>       0.10592121      -0.22474448       0.02135701 </v>
   <v>      -0.10520117      -0.22641948      -0.02128267 </v>
   <v>       0.00667022       0.02404047       0.00014175 </v>
   <v>      -0.12404145       0.12091437       0.01139520 </v>
   <v>       0.11921150       0.10591256      -0.01283635 </v>
   <v>       0.20947948       0.10293068       0.04000949 </v>
   <v>       0.00941530      -0.38703397       0.00117496 </v>
   <v>      -0.22060338       0.11659494      -0.04001449 </v>
   <v>       0.03598479      -0.01136075      -0.08960236 </v>
   <v>       0.05268412      -0.03482252       0.10533216 </v>
   <v>       0.01322161       0.02354827       0.01283548 </v>
   <v>       0.01318057       0.07499460      -0.01414742 </v>
   <v>       0.00207102       0.05019780      -0.11768854 </v>
   <v>      -0.00273200       0.05066195       0.11708177 </v>
   <v>       0.00216020      -0.08059869      -0.10253651 </v>
   <v>       0.00031418      -0.07976701       0.09871501 </v>
   <v>      -0.06528599      -0.00314660       0.08754041 </v>
   <v>      -0.03143205      -0.00617790      -0.07328020 </v>
   <v>      -0.05082768      -0.03217572      -0.10073120 </v>
   <v>      -0.03744290      -0.00754091       0.08568754 </v>
   <v>       0.03315437      -0.00956524       0.07329090 </v>
   <v>       0.06378276      -0.00519586      -0.08932016 </v>
   <v>       0.00825593      -0.00242619       0.21810971 </v>
   <v>      -0.00820809      -0.00181873      -0.21682772 </v>
   <v>      -0.01619111       0.07414906       0.01634107 </v>
   <v>      -0.01276250       0.02449657      -0.01117317 </v>
  </varray>
  <varray name="stress" >
   <v>       0.19406005       0.01051997       0.08170014 </v>
   <v>       0.01052003       0.21246994       0.00480409 </v>
   <v>       0.08170002       0.00480391      -1.17492032 </v>
  </varray>
  <energy>
   <i name="e_fr_energy">   -191.20572350 </i>
   <i name="e_wo_entrp">   -191.11231229 </i>
   <i name="e_0_energy">     -0.18682242 </i>
  </energy>
  <time name="totalsc">  256.71  257.39</time>
 </calculation>
 <calculation>
  <scstep>
   <time name="dav">   21.65   21.70</time>
   <time name="total">   22.16   22.21</time>
   <energy>
    <i name="alphaZ">     90.37061771 </i>
    <i name="ewald">  44746.60789419 </i>
    <i name="hartreedc"> -50757.85019815 </i>
    <i name="XCdc">   -233.35492593 </i>
    <i name="pawpsdc">   4080.62601359 </i>
    <i name="pawaedc">  -3496.51073345 </i>
    <i name="eentropy">     -0.18926434 </i>
    <i name="bandstr">  -1382.36062731 </i>
    <i name="atom">   6761.44252427 </i>
    <i name="e_fr_energy">   -191.21869942 </i>
    <i name="e_wo_entrp">   -191.02943508 </i>
    <i name="e_0_energy">   -191.12406725 </i>
   </energy>
  </scstep>
  <scstep>
   <time name="dav">   28.93   29.00</time>
   <time name="total">   29.43   29.51</time>
   <energy>
    <i name="e_fr_energy">   -191.21953626 </i>
    <i name="e_wo_entrp">   -191.03022548 </i>
    <i name="e_0_energy">   -191.12488087 </i>
   </energy>
  </scstep>
  <scstep>
   <time name="dav">   29.81   29.88</time>
   <time name="total">   30.32   30.40</time>
   <energy>
    <i name="e_fr_energy">   -191.21947568 </i>
    <i name="e_wo_entrp">   -191.03060807 </i>
    <i name="e_0_energy">   -191.12504187 </i>
   </energy>
  </scstep>
  <scstep>
   <time name="dav">   25.56   25.62</time>
   <time name="total">   26.07   26.14</time>
   <energy>
    <i name="e_fr_energy">   -191.21884788 </i>
    <i name="e_wo_entrp">   -191.02959222 </i>
    <i name="e_0_energy">   -191.12422005 </i>
   </energy>
  </scstep>
  <scstep>
   <time name="dav">   24.20   24.26</time>
   <time name="total">   24.23   24.30</time>
   <energy>
    <i name="alphaZ">     90.37061771 </i>
    <i name="ewald">  44746.60789419 </i>
    <i name="hartreedc"> -50759.11527676 </i>
    <i name="XCdc">   -233.31687001 </i>
    <i name="pawpsdc">   4081.79127790 </i>
    <i name="pawaedc">  -3497.68731460 </i>
    <i name="eentropy">     -0.18916469 </i>
    <i name="bandstr">  -1381.12245054 </i>
    <i name="atom">   6761.44252427 </i>
    <i name="e_fr_energy">   -191.21876252 </i>
    <i name="e_wo_entrp">   -191.02959783 </i>
    <i name="e_0_energy">   -191.12418018 </i>
   </energy>
  </scstep>
  <structure>
   <crystal>
    <varray name="basis" >
     <v>       8.26899585       4.77478130       0.00000000 </v>
     <v>      -8.26901937       4.77482270       0.00000000 </v>
     <v>       0.00000000       0.00000000      30.00000000 </v>
    </varray>
    <i name="volume">   2368.97244215 </i>
    <varray name="rec_basis" >
     <v>       0.06046701       0.10471653       0.00000000 </v>
     <v>      -0.06046649       0.10471624       0.00000000 </v>
     <v>       0.00000000       0.00000000       0.03333333 </v>
    </varray>
   </crystal>
   <varray name="positions" >
    <v>       0.01338298       0.68005603      -0.00000290 </v>
    <v>       0.32659585       0.32553232       0.00008142 </v>
    <v>       0.65887280      -0.00673475      -0.00007865 </v>
    <v>       0.32770185      -0.00568037      -0.00000058 </v>
    <v>       0.33421229       0.67422148      -0.00027568 </v>
    <v>       0.00743381       0.00080041       0.00027564 </v>
    <v>       1.00725364       0.33259640       0.00049440 </v>
    <v>       0.65779281       0.32438651      -0.00000031 </v>
    <v>       0.66599422       0.67405830      -0.00049380 </v>
    <v>       0.11752776       0.22540060       0.94772205 </v>
    <v>       0.22597742       0.11692385       0.05247075 </v>
[...]
      <set comment="kpoint 31">
       <r>  -17.5132    1.0000 </r>
       <r>  -17.2654    1.0000 </r>
       <r>  -16.8952    1.0000 </r>
       <r>  -16.4829    1.0000 </r>
       <r>  -16.4359    1.0000 </r>
       <r>  -16.3917    1.0000 </r>
       <r>  -16.3044    1.0000 </r>
       <r>  -16.0805    1.0000 </r>
       <r>  -16.0242    1.0000 </r>
       <r>  -15.9721    1.0000 </r>
       <r>  -15.9403    1.0000 </r>
       <r>  -15.8992    1.0000 </r>
       <r>  -15.8066    1.0000 </r>
       <r>  -15.7805    1.0000 </r>
       <r>  -15.6911    1.0000 </r>
       <r>  -15.5687    1.0000 </r>
       <r>  -15.5121    1.0000 </r>
       <r>  -15.4767    1.0000 </r>
       <r>   -9.7470    1.0000 </r>
       <r>   -9.4219    1.0000 </r>
       <r>   -9.2777    1.0000 </r>
       <r>   -8.9038    1.0000 </r>
       <r>   -8.7901    1.0000 </r>
       <r>   -8.7572    1.0000 </r>
       <r>   -8.5481    1.0000 </r>
       <r>   -8.4967    1.0000 </r>
       <r>   -8.3775    1.0000 </r>
       <r>   -8.3423    1.0000 </r>
       <r>   -8.2588    1.0000 </r>
       <r>   -8.2141    1.0000 </r>
       <r>   -8.1570    1.0000 </r>
       <r>   -8.0799    1.0000 </r>
       <r>   -7.9717    1.0000 </r>
       <r>   -7.8375    1.0000 </r>
       <r>   -7.7975    1.0000 </r>
       <r>   -7.5184    1.0000 </r>
       <r>   -7.4532    1.0000 </r>
       <r>   -7.4167    1.0000 </r>
       <r>   -7.2705    1.0000 </r>
       <r>   -7.2214    1.0000 </r>
       <r>   -7.1002    1.0000 </r>
       <r>   -7.0581    1.0000 </r>
       <r>   -6.9941    1.0000 </r>
       <r>   -6.8884    1.0000 </r>
       <r>   -6.8432    1.0000 </r>
       <r>   -6.8170    1.0000 </r>
       <r>   -6.7257    1.0000 </r>
       <r>   -6.6086    1.0000 </r>
       <r>   -6.5843    1.0000 </r>
       <r>   -6.4937    1.0000 </r>
       <r>   -6.3993    1.0000 </r>
       <r>   -6.3434    1.0000 </r>
       <r>   -6.2488    1.0000 </r>
       <r>   -6.2210    1.0000 </r>
       <r>   -6.1204    1.0000 </r>
       <r>   -5.9511    1.0000 </r>
       <r>   -5.8995    1.0000 </r>
       <r>   -5.8568    1.0000 </r>
       <r>   -5.8291    1.0000 </r>
       <r>   -5.7770    1.0000 </r>
       <r>   -5.7359    1.0000 </r>
       <r>   -5.6787    1.0000 </r>
       <r>   -5.6597    1.0000 </r>
       <r>   -5.5738    1.0000 </r>
       <r>   -5.2620    1.0000 </r>
       <r>   -5.1469    1.0000 </r>
       <r>   -5.0191    1.0000 </r>
       <r>   -4.9469    1.0000 </r>
       <r>   -4.9270    1.0000 </r>
       <r>   -4.7611    1.0000 </r>
       <r>   -4.5537    1.0000 </r>
       <r>   -4.3930    1.0000 </r>
       <r>   -4.1870    1.0000 </r>
       <r>   -3.7538    1.0000 </r>
       <r>   -3.6599    1.0000 </r>
       <r>   -3.5895    1.0000 </r>
       <r>   -3.5611    1.0000 </r>
       <r>   -3.4575    0.9993 </r>
       <r>   -3.2165    0.9344 </r>
       <r>   -3.0141    0.5312 </r>
       <r>   -2.8859    0.2039 </r>
       <r>   -2.7216    0.0233 </r>
       <r>   -2.5867    0.0016 </r>
       <r>   -2.4811    0.0001 </r>
       <r>   -2.3805    0.0000 </r>
       <r>   -2.3152    0.0000 </r>
       <r>   -2.2144    0.0000 </r>
       <r>   -2.1249    0.0000 </r>
       <r>   -2.0462    0.0000 </r>
       <r>   -1.9028    0.0000 </r>
       <r>   -1.7613    0.0000 </r>
       <r>   -1.6518    0.0000 </r>
       <r>   -1.5999    0.0000 </r>
       <r>   -1.4169    0.0000 </r>
       <r>   -1.2934    0.0000 </r>
       <r>   -1.1701    0.0000 </r>
       <r>   -1.1501    0.0000 </r>
       <r>   -1.1174    0.0000 </r>
       <r>   -1.0972    0.0000 </r>
       <r>   -0.8213    0.0000 </r>
       <r>   -0.7632    0.0000 </r>
       <r>   -0.7246    0.0000 </r>
       <r>   -0.6594    0.0000 </r>
       <r>   -0.5377    0.0000 </r>
       <r>   -0.3511    0.0000 </r>
       <r>   -0.2433    0.0000 </r>
       <r>   -0.1552    0.0000 </r>
       <r>    0.0724    0.0000 </r>
       <r>    0.1842    0.0000 </r>
       <r>    0.3182    0.0000 </r>
       <r>    0.6452    0.0000 </r>
       <r>    0.9224    0.0000 </r>
       <r>    1.0710    0.0000 </r>
       <r>    1.2094    0.0000 </r>
       <r>    1.2780    0.0000 </r>
       <r>    1.3926    0.0000 </r>
       <r>    1.4461    0.0000 </r>
       <r>    2.1779    0.0000 </r>
       <r>    2.2995    0.0000 </r>
       <r>    2.4390    0.0000 </r>
      </set>
      <set comment="kpoint 32">
       <r>  -17.5225    1.0000 </r>
       <r>  -17.1876    1.0000 </r>
       <r>  -17.0258    1.0000 </r>
       <r>  -16.4801    1.0000 </r>
       <r>  -16.3826    1.0000 </r>
       <r>  -16.3353    1.0000 </r>
       <r>  -16.2268    1.0000 </r>
       <r>  -16.1824    1.0000 </r>
       <r>  -16.0075    1.0000 </r>
       <r>  -15.9890    1.0000 </r>
       <r>  -15.9358    1.0000 </r>
       <r>  -15.8903    1.0000 </r>
       <r>  -15.8733    1.0000 </r>
       <r>  -15.7768    1.0000 </r>
       <r>  -15.7261    1.0000 </r>
       <r>  -15.5439    1.0000 </r>
       <r>  -15.5020    1.0000 </r>
       <r>  -15.4519    1.0000 </r>
       <r>   -9.6695    1.0000 </r>
       <r>   -9.5453    1.0000 </r>
       <r>   -9.3759    1.0000 </r>
       <r>   -8.8342    1.0000 </r>
       <r>   -8.7152    1.0000 </r>
       <r>   -8.5496    1.0000 </r>
       <r>   -8.4907    1.0000 </r>
       <r>   -8.4551    1.0000 </r>
       <r>   -8.4023    1.0000 </r>
       <r>   -8.3543    1.0000 </r>
       <r>   -8.3154    1.0000 </r>
       <r>   -8.2556    1.0000 </r>
       <r>   -8.2010    1.0000 </r>
       <r>   -8.1574    1.0000 </r>
       <r>   -8.1200    1.0000 </r>
       <r>   -7.8802    1.0000 </r>
       <r>   -7.7761    1.0000 </r>
       <r>   -7.4197    1.0000 </r>
       <r>   -7.4043    1.0000 </r>
       <r>   -7.3160    1.0000 </r>
       <r>   -7.2801    1.0000 </r>
       <r>   -7.2269    1.0000 </r>
       <r>   -7.1779    1.0000 </r>
       <r>   -7.1187    1.0000 </r>
       <r>   -7.0247    1.0000 </r>
       <r>   -6.9334    1.0000 </r>
       <r>   -6.8461    1.0000 </r>
       <r>   -6.8007    1.0000 </r>
       <r>   -6.6897    1.0000 </r>
       <r>   -6.6202    1.0000 </r>
       <r>   -6.5862    1.0000 </r>
       <r>   -6.4986    1.0000 </r>
       <r>   -6.4548    1.0000 </r>
       <r>   -6.3800    1.0000 </r>
       <r>   -6.2914    1.0000 </r>
       <r>   -6.2207    1.0000 </r>
       <r>   -6.1186    1.0000 </r>
       <r>   -5.9359    1.0000 </r>
       <r>   -5.8706    1.0000 </r>
       <r>   -5.8544    1.0000 </r>
       <r>   -5.8052    1.0000 </r>
       <r>   -5.7310    1.0000 </r>
       <r>   -5.6749    1.0000 </r>
       <r>   -5.4938    1.0000 </r>
       <r>   -5.4555    1.0000 </r>
       <r>   -5.3780    1.0000 </r>
       <r>   -5.3694    1.0000 </r>
       <r>   -5.3191    1.0000 </r>
       <r>   -5.1691    1.0000 </r>
       <r>   -5.0954    1.0000 </r>
       <r>   -4.9899    1.0000 </r>
       <r>   -4.7337    1.0000 </r>
       <r>   -4.5927    1.0000 </r>
       <r>   -4.4433    1.0000 </r>
       <r>   -4.0017    1.0000 </r>
       <r>   -3.8495    1.0000 </r>
       <r>   -3.6536    1.0000 </r>
       <r>   -3.5881    1.0000 </r>
       <r>   -3.5152    0.9999 </r>
       <r>   -3.4839    0.9997 </r>
       <r>   -3.1859    0.9020 </r>
       <r>   -2.9798    0.4347 </r>
       <r>   -2.8243    0.1032 </r>
       <r>   -2.6704    0.0093 </r>
       <r>   -2.6017    0.0023 </r>
       <r>   -2.5491    0.0007 </r>
       <r>   -2.4270    0.0000 </r>
       <r>   -2.3543    0.0000 </r>
       <r>   -2.2196    0.0000 </r>
       <r>   -2.1600    0.0000 </r>
       <r>   -2.0564    0.0000 </r>
       <r>   -1.9072    0.0000 </r>
       <r>   -1.7230    0.0000 </r>
       <r>   -1.6326    0.0000 </r>
       <r>   -1.6196    0.0000 </r>
       <r>   -1.4169    0.0000 </r>
       <r>   -1.2875    0.0000 </r>
       <r>   -1.1743    0.0000 </r>
       <r>   -1.1547    0.0000 </r>
       <r>   -1.1246    0.0000 </r>
       <r>   -1.0807    0.0000 </r>
       <r>   -0.7826    0.0000 </r>
       <r>   -0.7570    0.0000 </r>
       <r>   -0.7237    0.0000 </r>
       <r>   -0.6138    0.0000 </r>
       <r>   -0.5096    0.0000 </r>
       <r>   -0.4424    0.0000 </r>
       <r>   -0.2635    0.0000 </r>
       <r>   -0.1384    0.0000 </r>
       <r>    0.1320    0.0000 </r>
       <r>    0.1803    0.0000 </r>
       <r>    0.3112    0.0000 </r>
       <r>    0.5098    0.0000 </r>
       <r>    0.9617    0.0000 </r>
       <r>    1.0482    0.0000 </r>
       <r>    1.2266    0.0000 </r>
       <r>    1.2649    0.0000 </r>
       <r>    1.4172    0.0000 </r>
       <r>    1.4461    0.0000 </r>
       <r>    2.1454    0.0000 </r>
       <r>    2.2677    0.0000 </r>
       <r>    2.6184    0.0000 </r>
      </set>
      <set comment="kpoint 33">
       <r>  -17.4921    1.0000 </r>
       <r>  -17.2957    1.0000 </r>
       <r>  -16.8922    1.0000 </r>
       <r>  -16.4906    1.0000 </r>
       <r>  -16.4386    1.0000 </r>
       <r>  -16.3770    1.0000 </r>
       <r>  -16.2925    1.0000 </r>
       <r>  -16.0736    1.0000 </r>
       <r>  -16.0336    1.0000 </r>
       <r>  -15.9846    1.0000 </r>
       <r>  -15.9339    1.0000 </r>
       <r>  -15.8992    1.0000 </r>
       <r>  -15.8099    1.0000 </r>
       <r>  -15.7751    1.0000 </r>
       <r>  -15.7038    1.0000 </r>
       <r>  -15.5769    1.0000 </r>
       <r>  -15.5116    1.0000 </r>
       <r>  -15.4590    1.0000 </r>
       <r>   -9.7481    1.0000 </r>
       <r>   -9.3883    1.0000 </r>
       <r>   -9.3283    1.0000 </r>
       <r>   -8.8425    1.0000 </r>
       <r>   -8.8220    1.0000 </r>
       <r>   -8.7561    1.0000 </r>
       <r>   -8.5753    1.0000 </r>
       <r>   -8.4317    1.0000 </r>
       <r>   -8.3920    1.0000 </r>
       <r>   -8.3553    1.0000 </r>
       <r>   -8.2770    1.0000 </r>
       <r>   -8.2189    1.0000 </r>
       <r>   -8.1553    1.0000 </r>
       <r>   -8.1007    1.0000 </r>
       <r>   -7.9618    1.0000 </r>
       <r>   -7.9064    1.0000 </r>
       <r>   -7.6932    1.0000 </r>
       <r>   -7.5332    1.0000 </r>
       <r>   -7.4938    1.0000 </r>
       <r>   -7.3710    1.0000 </r>
       <r>   -7.2728    1.0000 </r>
       <r>   -7.2590    1.0000 </r>
       <r>   -7.0830    1.0000 </r>
       <r>   -7.0663    1.0000 </r>
       <r>   -6.9567    1.0000 </r>
       <r>   -6.9376    1.0000 </r>
       <r>   -6.8462    1.0000 </r>
       <r>   -6.8240    1.0000 </r>
       <r>   -6.7357    1.0000 </r>
       <r>   -6.6229    1.0000 </r>
       <r>   -6.6150    1.0000 </r>
       <r>   -6.4767    1.0000 </r>
       <r>   -6.4016    1.0000 </r>
       <r>   -6.3323    1.0000 </r>
       <r>   -6.2714    1.0000 </r>
       <r>   -6.1673    1.0000 </r>
       <r>   -6.1045    1.0000 </r>
       <r>   -5.9235    1.0000 </r>
       <r>   -5.8838    1.0000 </r>
       <r>   -5.8502    1.0000 </r>
       <r>   -5.8408    1.0000 </r>
       <r>   -5.7620    1.0000 </r>
       <r>   -5.7253    1.0000 </r>
       <r>   -5.6824    1.0000 </r>
       <r>   -5.6429    1.0000 </r>
       <r>   -5.5686    1.0000 </r>
       <r>   -5.3109    1.0000 </r>
       <r>   -5.1558    1.0000 </r>
       <r>   -4.9921    1.0000 </r>
       <r>   -4.9558    1.0000 </r>
       <r>   -4.9173    1.0000 </r>
       <r>   -4.7766    1.0000 </r>
       <r>   -4.5553    1.0000 </r>
       <r>   -4.4116    1.0000 </r>
       <r>   -4.2359    1.0000 </r>
       <r>   -3.7006    1.0000 </r>
       <r>   -3.6296    1.0000 </r>
       <r>   -3.5816    1.0000 </r>
       <r>   -3.5373    0.9999 </r>
       <r>   -3.4708    0.9995 </r>
       <r>   -3.1778    0.8918 </r>
       <r>   -3.0018    0.4966 </r>
       <r>   -2.8967    0.2262 </r>
       <r>   -2.7207    0.0229 </r>
       <r>   -2.6717    0.0096 </r>
       <r>   -2.4367    0.0000 </r>
       <r>   -2.3853    0.0000 </r>
       <r>   -2.3177    0.0000 </r>
       <r>   -2.2493    0.0000 </r>
       <r>   -2.1755    0.0000 </r>
       <r>   -2.0623    0.0000 </r>
       <r>   -1.9559    0.0000 </r>
       <r>   -1.6996    0.0000 </r>
       <r>   -1.6535    0.0000 </r>
       <r>   -1.6075    0.0000 </r>
       <r>   -1.3949    0.0000 </r>
       <r>   -1.2519    0.0000 </r>
       <r>   -1.1842    0.0000 </r>
       <r>   -1.1549    0.0000 </r>
       <r>   -1.1326    0.0000 </r>
       <r>   -1.0514    0.0000 </r>
       <r>   -0.7849    0.0000 </r>
       <r>   -0.7251    0.0000 </r>
       <r>   -0.6954    0.0000 </r>
       <r>   -0.6062    0.0000 </r>
       <r>   -0.5536    0.0000 </r>
       <r>   -0.4146    0.0000 </r>
       <r>   -0.3386    0.0000 </r>
       <r>   -0.2236    0.0000 </r>
       <r>    0.0396    0.0000 </r>
       <r>    0.1824    0.0000 </r>
       <r>    0.3213    0.0000 </r>
       <r>    0.6218    0.0000 </r>
       <r>    0.9016    0.0000 </r>
       <r>    1.0464    0.0000 </r>
       <r>    1.2411    0.0000 </r>
       <r>    1.2795    0.0000 </r>
       <r>    1.4659    0.0000 </r>
       <r>    1.5172    0.0000 </r>
       <r>    2.1791    0.0000 </r>
       <r>    2.3031    0.0000 </r>
       <r>    2.4424    0.0000 </r>
      </set>
      <set comment="kpoint 34">
       <r>  -17.4338    1.0000 </r>
       <r>  -17.3944    1.0000 </r>
       <r>  -16.7189    1.0000 </r>
       <r>  -16.6372    1.0000 </r>
       <r>  -16.4517    1.0000 </r>
       <r>  -16.4165    1.0000 </r>
       <r>  -16.2735    1.0000 </r>
       <r>  -16.0584    1.0000 </r>
       <r>  -16.0313    1.0000 </r>
       <r>  -15.9755    1.0000 </r>
       <r>  -15.9638    1.0000 </r>
       <r>  -15.8594    1.0000 </r>
       <r>  -15.8247    1.0000 </r>
       <r>  -15.6852    1.0000 </r>
       <r>  -15.6776    1.0000 </r>
       <r>  -15.6060    1.0000 </r>
       <r>  -15.5775    1.0000 </r>
       <r>  -15.4546    1.0000 </r>
       <r>   -9.7883    1.0000 </r>
       <r>   -9.2358    1.0000 </r>
       <r>   -9.2013    1.0000 </r>
       <r>   -9.0323    1.0000 </r>
       <r>   -8.9757    1.0000 </r>
       <r>   -8.7220    1.0000 </r>
       <r>   -8.6818    1.0000 </r>
       <r>   -8.4210    1.0000 </r>
       <r>   -8.3688    1.0000 </r>
       <r>   -8.3569    1.0000 </r>
       <r>   -8.2641    1.0000 </r>
       <r>   -8.2482    1.0000 </r>
       <r>   -8.1441    1.0000 </r>
       <r>   -7.9516    1.0000 </r>
       <r>   -7.9251    1.0000 </r>
       <r>   -7.8351    1.0000 </r>
       <r>   -7.6744    1.0000 </r>
       <r>   -7.5710    1.0000 </r>
       <r>   -7.5366    1.0000 </r>
       <r>   -7.4150    1.0000 </r>
       <r>   -7.2551    1.0000 </r>
       <r>   -7.2339    1.0000 </r>
       <r>   -7.1956    1.0000 </r>
       <r>   -7.0644    1.0000 </r>
       <r>   -7.0596    1.0000 </r>
       <r>   -6.8649    1.0000 </r>
       <r>   -6.8337    1.0000 </r>
       <r>   -6.7071    1.0000 </r>
       <r>   -6.6777    1.0000 </r>
       <r>   -6.6602    1.0000 </r>
       <r>   -6.4831    1.0000 </r>
       <r>   -6.4636    1.0000 </r>
       <r>   -6.3685    1.0000 </r>
       <r>   -6.3326    1.0000 </r>
       <r>   -6.2817    1.0000 </r>
       <r>   -6.2304    1.0000 </r>
       <r>   -6.1359    1.0000 </r>
       <r>   -6.0413    1.0000 </r>
       <r>   -5.9346    1.0000 </r>
       <r>   -5.8464    1.0000 </r>
       <r>   -5.7929    1.0000 </r>
       <r>   -5.7868    1.0000 </r>
       <r>   -5.7447    1.0000 </r>
       <r>   -5.6743    1.0000 </r>
       <r>   -5.6650    1.0000 </r>
       <r>   -5.6164    1.0000 </r>
       <r>   -5.5292    1.0000 </r>
       <r>   -5.0091    1.0000 </r>
       <r>   -4.9536    1.0000 </r>
       <r>   -4.9143    1.0000 </r>
       <r>   -4.8001    1.0000 </r>
       <r>   -4.5858    1.0000 </r>
       <r>   -4.5632    1.0000 </r>
       <r>   -4.4599    1.0000 </r>
       <r>   -4.4018    1.0000 </r>
       <r>   -3.6893    1.0000 </r>
       <r>   -3.6341    1.0000 </r>
       <r>   -3.5745    1.0000 </r>
       <r>   -3.5005    0.9998 </r>
       <r>   -3.4367    0.9989 </r>
       <r>   -3.2031    0.9215 </r>
       <r>   -3.0333    0.5848 </r>
       <r>   -2.9407    0.3298 </r>
       <r>   -2.7756    0.0539 </r>
       <r>   -2.6880    0.0130 </r>
       <r>   -2.3827    0.0000 </r>
       <r>   -2.3498    0.0000 </r>
       <r>   -2.2598    0.0000 </r>
       <r>   -2.2428    0.0000 </r>
       <r>   -2.1950    0.0000 </r>
       <r>   -2.0619    0.0000 </r>
       <r>   -2.0129    0.0000 </r>
       <r>   -1.7009    0.0000 </r>
       <r>   -1.6645    0.0000 </r>
       <r>   -1.5896    0.0000 </r>
       <r>   -1.3821    0.0000 </r>
       <r>   -1.2073    0.0000 </r>
       <r>   -1.1975    0.0000 </r>
       <r>   -1.1603    0.0000 </r>
       <r>   -1.1460    0.0000 </r>
       <r>   -1.0360    0.0000 </r>
       <r>   -0.7551    0.0000 </r>
       <r>   -0.7391    0.0000 </r>
       <r>   -0.6928    0.0000 </r>
       <r>   -0.5801    0.0000 </r>
       <r>   -0.5496    0.0000 </r>
       <r>   -0.4980    0.0000 </r>
       <r>   -0.3126    0.0000 </r>
       <r>   -0.2857    0.0000 </r>
       <r>   -0.0257    0.0000 </r>
       <r>    0.1789    0.0000 </r>
       <r>    0.3405    0.0000 </r>
       <r>    0.7229    0.0000 </r>
       <r>    0.8380    0.0000 </r>
       <r>    1.0436    0.0000 </r>
       <r>    1.2638    0.0000 </r>
       <r>    1.2897    0.0000 </r>
       <r>    1.4886    0.0000 </r>
       <r>    1.5613    0.0000 </r>
       <r>    2.2759    0.0000 </r>
       <r>    2.2815    0.0000 </r>
       <r>    2.3979    0.0000 </r>
      </set>
     </set>
    </set>
   </array>
  </eigenvalues>
  <separator name="orbital magnetization" >
   <v name="MAGDIPOLOUT">      0.00000000      0.00000000      0.00000000</v>
  </separator>
 </calculation>
 <structure name="finalpos" >
  <crystal>
   <varray name="basis" >
    <v>       8.27463478       4.78490798       0.00000000 </v>
    <v>      -8.27846962       4.79150924       0.00000000 </v>
    <v>       0.00000000       0.00000000      30.00000000 </v>
   </varray>
   <i name="volume">   2377.79113200 </i>
   <varray name="rec_basis" >
    <v>       0.06045328       0.10444739       0.00000000 </v>
    <v>      -0.06037000       0.10439901       0.00000000 </v>
    <v>       0.00000000       0.00000000       0.03333333 </v>
   </varray>
  </crystal>
  <varray name="positions" >
   <v>       0.01407821       0.67532504      -0.00010947 </v>
   <v>       0.31652988       0.31745839       0.00029972 </v>
   <v>       0.65598280      -0.01536447      -0.00026195 </v>
   <v>       0.31877537      -0.01492384      -0.00013455 </v>
   <v>       0.33603453       0.67967451       0.00000138 </v>
   <v>       0.00960486       0.00508559      -0.00003770 </v>
   <v>       1.00977075       0.33398135       0.00059986 </v>
   <v>       0.66891230       0.33264981       0.00010379 </v>
   <v>       0.66697493       0.68103716      -0.00037448 </v>
   <v>       0.11793402       0.22626073       0.94683155 </v>
   <v>       0.22559418       0.11529827       0.05280428 </v>
   <v>       0.10905977       0.55835463       0.94843461 </v>
   <v>       0.22733150       0.44349046       0.05161855 </v>
   <v>       0.10600244       0.88055739       0.94657432 </v>
   <v>       0.21414632       0.77335377       0.05395629 </v>
   <v>       0.43974557       0.22273877       0.95007302 </v>
   <v>       0.55642081       0.10584071       0.05004362 </v>
   <v>       0.44160279       0.55080009       0.95029368 </v>
   <v>       0.54929427       0.44338491       0.04930409 </v>
   <v>       0.44961226       0.89309591       0.94705542 </v>
   <v>       0.55836740       0.78486962       0.05329836 </v>
   <v>       0.77672814       0.21534408       0.95004967 </v>
   <v>       0.88353925       0.10875766       0.05029304 </v>
   <v>       0.78410565       0.56062987       0.95045474 </v>
   <v>       0.89394219       0.45103597       0.05045437 </v>
   <v>       0.77660019       0.89420040       0.94758972 </v>
   <v>       0.89152407       0.77527767       0.05078395 </v>
  </varray>
 </structure>
</modeling>
