unknown system                          
           1
     8.855463    5.105207    0.000000
    -8.855361    5.105032    0.000000
     0.000000    0.000000   30.000000
   V    Mo   W    S 
   3   3   3  18
Direct configuration=     1
   0.66666669  0.00000000  0.00000000
   0.00000000  0.00000000  0.00000000
   0.33333334  0.33333334  0.00000000
   1.00000000  0.33333334  0.00000000
   0.33333334  0.00000000  0.00000000
   0.66666669  0.66666669  0.00000000
   0.00000000  0.66666669  0.00000000
   0.33333334  0.66666669  0.00000000
   0.66666669  0.33333334  0.00000000
   0.11068511  0.22244981  0.95539999
   0.22244981  0.11068511  0.04460000
   0.11068511  0.55578315  0.95539999
   0.22244981  0.44401845  0.04460000
   0.11068511  0.88911647  0.95539999
   0.22244981  0.77735180  0.04460000
   0.44401845  0.22244981  0.95539999
   0.55578315  0.11068511  0.04460000
   0.44401845  0.55578315  0.95539999
   0.55578315  0.44401845  0.04460000
   0.44401845  0.88911647  0.95539999
   0.55578315  0.77735180  0.04460000
   0.77735180  0.22244981  0.95539999
   0.88911647  0.11068511  0.04460000
   0.77735180  0.55578315  0.95539999
   0.88911647  0.44401845  0.04460000
   0.77735180  0.88911647  0.95539999
   0.88911647  0.77735180  0.04460000
unknown system                          
           1
     8.667190    4.999023    0.000000
    -8.667008    4.998710    0.000000
     0.000000    0.000000   30.000000
   V    Mo   W    S 
   3   3   3  18
Direct configuration=     2
   0.66711243 -0.00008169 -0.00017221
   0.00001518  0.00054134  0.00000675
   0.33283603  0.33284971  0.00016828
   1.00004607  0.33312997 -0.00001479
   0.33315698  0.00002897  0.00007594
   0.66679953  0.66684098 -0.00006116
  -0.00012735  0.66691759  0.00000584
   0.33371996  0.66665609 -0.00021976
   0.66635202  0.33304481  0.00021053
   0.11314068  0.21994419  0.95305164
   0.22004735  0.11328286  0.04696580
   0.11158597  0.55638291  0.95071304
   0.22504199  0.44274071  0.04801983
   0.10812773  0.89019209  0.95199630
   0.22154022  0.77688178  0.04925703
   0.44287070  0.22497414  0.95201900
   0.55836751  0.10969191  0.04797406
   0.44167305  0.55150431  0.95194987
   0.55132297  0.44157090  0.04810651
   0.44843652  0.89003270  0.95190140
   0.55675458  0.78169582  0.04804975
   0.77500896  0.21789822  0.95191636
   0.88684376  0.10661391  0.04688178
   0.77825038  0.55516554  0.95074903
   0.88828916  0.44479876  0.04927859
   0.77955381  0.89324492  0.95309315
   0.89144823  0.78167103  0.04807737
unknown system                          
           1
     8.484030    4.897759    0.000000
    -8.484347    4.898309    0.000000
     0.000000    0.000000   30.000000
   V    Mo   W    S 
   3   3   3  18
Direct configuration=     3
   0.66712703 -0.00011455 -0.00019215
   0.00001988  0.00058875  0.00000749
   0.33281958  0.33280652  0.00018679
   1.00004500  0.33358844 -0.00001572
   0.33309929 -0.00022680  0.00008016
   0.66684890  0.66663409 -0.00006431
  -0.00014144  0.66673965  0.00000656
   0.33356984  0.66668917 -0.00024039
   0.66651979  0.33324767  0.00023145
   0.11316729  0.21988473  0.95309803
   0.21999822  0.11333064  0.04694146
   0.11171401  0.55666769  0.95068751
   0.22522452  0.44292620  0.04801942
   0.10796139  0.89003083  0.95200323
   0.22143525  0.77660125  0.04925441
   0.44305332  0.22513602  0.95204992
   0.55855668  0.10988377  0.04796902
   0.44145708  0.55148406  0.95196312
   0.55130298  0.44134354  0.04811495
   0.44846556  0.88987663  0.95188971
   0.55660675  0.78171163  0.04801222
   0.77478474  0.21787691  0.95193060
   0.88678915  0.10652757  0.04684349
   0.77835959  0.55502506  0.95074532
   0.88815236  0.44491351  0.04930812
   0.77963303  0.89334528  0.95310906
   0.89164469  0.78169620  0.04806044
unknown system                          
           1
     8.265033    4.770829    0.000000
    -8.265945    4.772410    0.000000
     0.000000    0.000000   30.000000
   V    Mo   W    S 
   3   3   3  18
Direct configuration=     4
   0.66666337 -0.00029994 -0.00018431
   0.00004214  0.00031394  0.00000691
   0.33322415  0.33305520  0.00017635
   1.00004255  0.33620753 -0.00001193
   0.33288449 -0.00166770  0.00005526
   0.66700617  0.66537371 -0.00004320
  -0.00017348  0.66544740  0.00000614
   0.33238760  0.66686412 -0.00020613
   0.66771749  0.33462943  0.00020130
   0.11363984  0.21933135  0.95197666
   0.21936640  0.11384997  0.04817851
   0.11182580  0.55703976  0.94892182
   0.22590230  0.44255587  0.04946615
   0.10733465  0.89060800  0.95057834
   0.22141691  0.77622292  0.05087587
   0.44256952  0.22568348  0.95074350
   0.55925264  0.10935819  0.04941100
   0.44066796  0.55017650  0.95055478
   0.55003898  0.44053701  0.04964794
   0.44974313  0.89046864  0.95035096
   0.55719079  0.78286189  0.04929547
   0.77399057  0.21673141  0.95051918
   0.88624903  0.10553411  0.04799316
   0.77840514  0.55479488  0.94909703
   0.88804902  0.44505357  0.05109003
   0.78038648  0.89448474  0.95184160
   0.89239080  0.78299849  0.04945753
unknown system                          
           1
     8.250178    4.759079    0.000000
    -8.254151    4.765962    0.000000
     0.000000    0.000000   30.000000
   V    Mo   W    S 
   3   3   3  18
Direct configuration=     5
   0.66509420 -0.00079216  0.00002466
   0.00003735 -0.00061077  0.00000535
   0.33467571  0.33411412 -0.00003377
   1.00001145  0.34204260 -0.00000712
   0.33251004 -0.00492104 -0.00002191
   0.66733172  0.66245428  0.00002918
  -0.00029544  0.66183769  0.00000672
   0.32923827  0.66725698 -0.00004460
   0.67096166  0.33827791  0.00004003
   0.11377430  0.21917646  0.95047956
   0.21873869  0.11406501  0.05002124
   0.11198745  0.55740756  0.94620662
   0.22624960  0.44211646  0.05142577
   0.10676938  0.89123089  0.94868575
   0.22139886  0.77607683  0.05319507
   0.44189407  0.22572417  0.94918827
   0.55984770  0.10877285  0.05125342
   0.44000573  0.54883293  0.94873236
   0.54863440  0.43966375  0.05192353
   0.45117976  0.89102537  0.94807394
   0.55800203  0.78378234  0.05082783
   0.77357437  0.21578501  0.94859616
   0.88605758  0.10534846  0.04950814
   0.77842964  0.55469934  0.94676310
   0.88791353  0.44524013  0.05381415
   0.78113369  0.89523488  0.94998592
   0.89305872  0.78437241  0.05132055
unknown system                          
           1
     8.251867    4.758558    0.000000
    -8.257212    4.767819    0.000000
     0.000000    0.000000   30.000000
   V    Mo   W    S 
   3   3   3  18
Direct configuration=     6
   0.66419926 -0.00110921  0.00007163
   0.00003986 -0.00097825  0.00000425
   0.33550843  0.33467830 -0.00007744
   1.00000477  0.34391718 -0.00000861
   0.33222209 -0.00634712 -0.00003038
   0.66760817  0.66131099  0.00003897
  -0.00030848  0.66034381  0.00000324
   0.32759817  0.66744493 -0.00005979
   0.67261482  0.34011753  0.00005656
   0.11339369  0.21977160  0.95052711
   0.21897848  0.11379761  0.05008699
   0.11207701  0.55764383  0.94567339
   0.22588127  0.44230300  0.05152598
   0.10675722  0.89072147  0.94860337
   0.22108502  0.77606399  0.05358904
   0.44211918  0.22527885  0.94924442
   0.55976066  0.10909675  0.05126076
   0.44009961  0.54922571  0.94871554
   0.54880403  0.43948680  0.05218984
   0.45102588  0.89065948  0.94780307
   0.55779577  0.78311054  0.05078305
   0.77397883  0.21635687  0.94849283
   0.88645438  0.10632555  0.04945610
   0.77872645  0.55497440  0.94636357
   0.88782373  0.44540729  0.05435536
   0.78089717  0.89472370  0.94992259
   0.89306899  0.78388885  0.05140844
unknown system                          
           1
     8.252130    4.755453    0.000000
    -8.260381    4.769746    0.000000
     0.000000    0.000000   30.000000
   V    Mo   W    S 
   3   3   3  18
Direct configuration=     7
   0.66346328 -0.00145723  0.00011508
   0.00004593 -0.00115506  0.00000508
   0.33619207  0.33506140 -0.00012086
   1.00000564  0.34544348 -0.00000618
   0.33171415 -0.00788165 -0.00003790
   0.66810563  0.66029361  0.00004443
  -0.00031399  0.65925379  0.00000332
   0.32609866  0.66773443 -0.00004124
   0.67413274  0.34191215  0.00003775
   0.11314606  0.22021852  0.95069729
   0.21920159  0.11364814  0.05001243
   0.11210774  0.55781294  0.94532872
   0.22566374  0.44252632  0.05150464
   0.10671315  0.89027013  0.94862036
   0.22077330  0.77595346  0.05382708
   0.44241429  0.22498486  0.94942392
   0.55974101  0.10942152  0.05115296
   0.44012974  0.54956775  0.94881833
   0.54895190  0.43934612  0.05233585
   0.45088892  0.89035794  0.94765526
   0.55750875  0.78252202  0.05061211
   0.77421536  0.21680394  0.94851520
   0.88670806  0.10701524  0.04927927
   0.77902756  0.55515841  0.94612359
   0.88779796  0.44556141  0.05470100
   0.78067202  0.89435469  0.95000121
   0.89310918  0.78348613  0.05139122
unknown system                          
           1
     8.252681    4.756649    0.000000
    -8.260139    4.769567    0.000000
     0.000000    0.000000   30.000000
   V    Mo   W    S 
   3   3   3  18
Direct configuration=     8
   0.66239061 -0.00200955  0.00018986
   0.00004597 -0.00118949  0.00000707
   0.33715857  0.33557195 -0.00019366
   1.00000710  0.34758529 -0.00000517
   0.33067503 -0.01057234 -0.00006590
   0.66914498  0.65870597  0.00006991
  -0.00031348  0.65784746 -0.00000013
   0.32378217  0.66826339 -0.00005446
   0.67649673  0.34474610  0.00005086
   0.11290342  0.22080321  0.95098628
   0.21949817  0.11347318  0.04986350
   0.11214459  0.55802546  0.94487521
   0.22542736  0.44287790  0.05144073
   0.10660739  0.88969300  0.94865080
   0.22022885  0.77572165  0.05420408
   0.44290614  0.22459825  0.94976316
   0.55970407  0.10990071  0.05091350
   0.44017817  0.55008681  0.94905115
   0.54916084  0.43914026  0.05251932
   0.45069867  0.88993615  0.94746461
   0.55702978  0.78165318  0.05028306
   0.77447139  0.21739483  0.94858644
   0.88694972  0.10783382  0.04898040
   0.77956492  0.55545975  0.94574802
   0.88776579  0.44575326  0.05515933
   0.78037603  0.89389557  0.95015315
   0.89321144  0.78301871  0.05135878
unknown system                          
           1
     8.253553    4.757788    0.000000
    -8.260500    4.769824    0.000000
     0.000000    0.000000   30.000000
   V    Mo   W    S 
   3   3   3  18
Direct configuration=     9
   0.66270793 -0.00185322  0.00016759
   0.00004545 -0.00116112  0.00000663
   0.33687033  0.33541392 -0.00017206
   1.00000724  0.34691307 -0.00000530
   0.33094357 -0.00981629 -0.00005720
   0.66887772  0.65917811  0.00006192
  -0.00031301  0.65831791  0.00000090
   0.32448210  0.66812915 -0.00005152
   0.67578398  0.34391420  0.00004800
   0.11298588  0.22062107  0.95090043
   0.21940770  0.11352927  0.04990549
   0.11213100  0.55795717  0.94501487
   0.22550639  0.44277568  0.05145699
   0.10663571  0.88987306  0.94863998
   0.22038394  0.77578451  0.05409298
   0.44276225  0.22471054  0.94966834
   0.55970891  0.10975670  0.05097807
   0.44016940  0.54993769  0.94898869
   0.54909849  0.43920397  0.05246368
   0.45075589  0.89006523  0.94752194
   0.55716979  0.78190736  0.05037513
   0.77438563  0.21721143  0.94856822
   0.88686614  0.10757113  0.04906905
   0.77941236  0.55537183  0.94585905
   0.88777853  0.44569347  0.05501807
   0.78046652  0.89403964  0.95010990
   0.89318462  0.78316898  0.05137004
unknown system                          
           1
     8.251677    4.755131    0.000000
    -8.259608    4.768869    0.000000
     0.000000    0.000000   30.000000
   V    Mo   W    S 
   3   3   3  18
Direct configuration=    10
   0.66277888 -0.00182315  0.00015399
   0.00008002 -0.00106995  0.00000591
   0.33681294  0.33538127 -0.00016343
   1.00003983  0.34691273 -0.00000496
   0.33074858 -0.01002523 -0.00005686
   0.66902528  0.65910511  0.00006127
  -0.00030115  0.65832428  0.00000154
   0.32431986  0.66813357 -0.00005474
   0.67590495  0.34409572  0.00005116
   0.11303662  0.22059940  0.95089624
   0.21941180  0.11355294  0.04989367
   0.11210127  0.55795280  0.94504114
   0.22557265  0.44276501  0.05143960
   0.10658105  0.88988772  0.94864630
   0.22034390  0.77576155  0.05409381
   0.44273763  0.22470004  0.94969558
   0.55967451  0.10976126  0.05096013
   0.44018942  0.54995190  0.94901402
   0.54906310  0.43919917  0.05244912
   0.45077261  0.89009209  0.94753158
   0.55717844  0.78189731  0.05035619
   0.77432649  0.21714770  0.94858069
   0.88683578  0.10751367  0.04907860
   0.77945346  0.55538991  0.94585903
   0.88781001  0.44571883  0.05499133
   0.78047657  0.89405145  0.95011659
   0.89323995  0.78323736  0.05136240
unknown system                          
           1
     8.246058    4.745397    0.000000
    -8.258579    4.767081    0.000000
     0.000000    0.000000   30.000000
   V    Mo   W    S 
   3   3   3  18
Direct configuration=    11
   0.66224668 -0.00209914  0.00014050
  -0.00006142 -0.00164612  0.00000370
   0.33722321  0.33556259 -0.00014180
   0.99994550  0.34783201 -0.00000672
   0.33131741 -0.00964233 -0.00003984
   0.66863141  0.65914134  0.00003757
  -0.00035830  0.65773315 -0.00001113
   0.32425735  0.66796887 -0.00006221
   0.67611472  0.34395232  0.00005509
   0.11284404  0.22071030  0.95098950
   0.21947895  0.11350625  0.04987720
   0.11222547  0.55808256  0.94491493
   0.22541918  0.44283275  0.05147285
   0.10669920  0.88974622  0.94866358
   0.22038805  0.77584668  0.05412026
   0.44287523  0.22475431  0.94960754
   0.55986228  0.10983742  0.05105998
   0.44005084  0.54989931  0.94891704
   0.54906805  0.43910577  0.05251837
   0.45087800  0.89003306  0.94744785
   0.55709497  0.78186878  0.05044303
   0.77444480  0.21729633  0.94853545
   0.88695843  0.10776246  0.04898832
   0.77940440  0.55542089  0.94583410
   0.88769274  0.44573986  0.05514227
   0.78036995  0.89398142  0.95012592
   0.89314332  0.78298741  0.05136654
unknown system                          
           1
     8.246621    4.745659    0.000000
    -8.259234    4.767502    0.000000
     0.000000    0.000000   30.000000
   V    Mo   W    S 
   3   3   3  18
Direct configuration=    12
   0.65964480 -0.00376796  0.00019561
  -0.00059480 -0.00412358  0.00000715
   0.33926628  0.33616093 -0.00016815
   0.99965340  0.35178887  0.00000594
   0.33353517 -0.00828223 -0.00003726
   0.66709341  0.65907170  0.00003815
  -0.00060950  0.65546477 -0.00000960
   0.32393017  0.66755657 -0.00002842
   0.67697439  0.34371741  0.00003242
   0.11218264  0.22127220  0.95158476
   0.21990557  0.11344855  0.04975726
   0.11265197  0.55875831  0.94430017
   0.22487175  0.44310358  0.05150112
   0.10716834  0.88904905  0.94876968
   0.22034260  0.77603308  0.05416933
   0.44352960  0.22508036  0.94947508
   0.56060894  0.11007739  0.05132555
   0.43946962  0.54957251  0.94869669
   0.54911748  0.43879450  0.05269833
   0.45122603  0.88982011  0.94715667
   0.55662505  0.78169460  0.05060347
   0.77489078  0.21789648  0.94844346
   0.88735921  0.10880021  0.04841936
   0.77941694  0.55561296  0.94575163
   0.88733496  0.44607635  0.05581241
   0.77982584  0.89367104  0.95017517
   0.89279385  0.78186669  0.05132392
unknown system                          
           1
     8.255649    4.751309    0.000000
    -8.268747    4.773999    0.000000
     0.000000    0.000000   30.000000
   V    Mo   W    S 
   3   3   3  18
Direct configuration=    13
   0.65942651 -0.00394763  0.00019872
  -0.00062606 -0.00434096  0.00000679
   0.33944413  0.33617641 -0.00017226
   0.99964778  0.35211223  0.00000519
   0.33366051 -0.00823076 -0.00003363
   0.66701763  0.65904503  0.00003233
  -0.00063038  0.65531518 -0.00001177
   0.32386979  0.66756246 -0.00003400
   0.67706036  0.34377179  0.00003498
   0.11212701  0.22131158  0.95164440
   0.21994605  0.11344405  0.04974625
   0.11268669  0.55882662  0.94425649
   0.22483627  0.44311796  0.05149590
   0.10720559  0.88900257  0.94877492
   0.22033771  0.77605781  0.05416915
   0.44358555  0.22509525  0.94947060
   0.56065079  0.11009667  0.05133691
   0.43943803  0.54955780  0.94869273
   0.54913395  0.43878519  0.05271198
   0.45122424  0.88979903  0.94713341
   0.55657666  0.78165608  0.05061357
   0.77492495  0.21793909  0.94844568
   0.88739872  0.10888610  0.04836309
   0.77941943  0.55563932  0.94575108
   0.88730518  0.44611185  0.05586298
   0.77978138  0.89363664  0.95017898
   0.89276598  0.78178708  0.05132542
unknown system                          
           1
     8.258625    4.752635    0.000000
    -8.272274    4.776281    0.000000
     0.000000    0.000000   30.000000
   V    Mo   W    S 
   3   3   3  18
Direct configuration=    14
   0.65846950 -0.00513571  0.00024708
  -0.00057374 -0.00517942  0.00000646
   0.34032304  0.33590976 -0.00024618
   0.99984258  0.35356491  0.00000600
   0.33283100 -0.00963018 -0.00001886
   0.66790041  0.65840620  0.00001283
  -0.00065171  0.65510461 -0.00001011
   0.32262519  0.66813080 -0.00010001
   0.67813819  0.34551831  0.00009001
   0.11188441  0.22150999  0.95204712
   0.22016582  0.11333840  0.04964981
   0.11277049  0.55921852  0.94405659
   0.22477607  0.44330525  0.05135338
   0.10723499  0.88880451  0.94877593
   0.22007236  0.77606238  0.05424708
   0.44402576  0.22493622  0.94968041
   0.56051530  0.11028132  0.05113915
   0.43957391  0.54984159  0.94893593
   0.54940390  0.43889444  0.05277179
   0.45084489  0.88957537  0.94703324
   0.55609223  0.78097028  0.05043893
   0.77506295  0.21826482  0.94860009
   0.88764184  0.10935931  0.04796470
   0.77966986  0.55589370  0.94566931
   0.88723294  0.44638928  0.05606209
   0.77959870  0.89330244  0.95024952
   0.89274357  0.78157736  0.05133761
unknown system                          
           1
     8.239612    4.745579    0.000000
    -8.250258    4.764025    0.000000
     0.000000    0.000000   30.000000
   V    Mo   W    S 
   3   3   3  18
Direct configuration=    15
   0.65814330 -0.00558582  0.00026595
  -0.00049584 -0.00512452  0.00000698
   0.34066735  0.33583357 -0.00027388
   0.99993722  0.35380092  0.00000626
   0.33204077 -0.01081713 -0.00001778
   0.66865453  0.65791403  0.00001180
  -0.00064421  0.65529716 -0.00001048
   0.32207231  0.66862951 -0.00012514
   0.67860345  0.34659162  0.00011195
   0.11194803  0.22159695  0.95213114
   0.22021281  0.11334376  0.04962582
   0.11270584  0.55924720  0.94400311
   0.22483681  0.44339063  0.05126922
   0.10717366  0.88879604  0.94870441
   0.21986295  0.77596497  0.05436456
   0.44413383  0.22475907  0.94982297
   0.56038773  0.11037897  0.05095903
   0.43967184  0.55003378  0.94911393
   0.54945226  0.43892845  0.05281617
   0.45070301  0.88952249  0.94700013
   0.55593807  0.78064753  0.05029346
   0.77504961  0.21833895  0.94870654
   0.88761239  0.10942002  0.04787211
   0.77988332  0.55599847  0.94555544
   0.88729084  0.44645416  0.05610425
   0.77957737  0.89322989  0.95027907
   0.89279520  0.78162380  0.05140287
unknown system                          
           1
     8.238884    4.745479    0.000000
    -8.249234    4.763414    0.000000
     0.000000    0.000000   30.000000
   V    Mo   W    S 
   3   3   3  18
Direct configuration=    16
   0.65984564 -0.00334587  0.00018881
  -0.00060394 -0.00546355 -0.00000472
   0.33938372  0.33634391 -0.00019574
   0.99972880  0.35311547 -0.00000411
   0.33657011 -0.00417525 -0.00003321
   0.66386276  0.65970690  0.00000450
  -0.00065656  0.65377855 -0.00001539
   0.32455036  0.66575093 -0.00004601
   0.67610212  0.34131298  0.00001773
   0.11164617  0.22127517  0.95184259
   0.22021452  0.11361231  0.04973549
   0.11303936  0.55924969  0.94419217
   0.22454725  0.44274692  0.05164253
   0.10756371  0.88870754  0.94904813
   0.22098694  0.77656468  0.05366792
   0.44361710  0.22593278  0.94918423
   0.56109458  0.10987780  0.05186408
   0.43897485  0.54871963  0.94829179
   0.54900498  0.43866705  0.05246898
   0.45127736  0.88974842  0.94726305
   0.55650431  0.78227203  0.05101279
   0.77523965  0.21795295  0.94820052
   0.88792217  0.10935639  0.04826827
   0.77875680  0.55548297  0.94624772
   0.88700815  0.44622969  0.05597243
   0.77957457  0.89356627  0.95009781
   0.89245900  0.78122809  0.05108755
unknown system                          
           1
     8.246202    4.743935    0.000000
    -8.260892    4.769385    0.000000
     0.000000    0.000000   30.000000
   V    Mo   W    S 
   3   3   3  18
Direct configuration=    17
   0.66042400 -0.00265110  0.00016478
  -0.00064662 -0.00560440 -0.00000802
   0.33894097  0.33645747 -0.00016233
   0.99963098  0.35287947 -0.00000486
   0.33820669 -0.00182398 -0.00003857
   0.66220263  0.66039454  0.00001226
  -0.00066197  0.65325707 -0.00000773
   0.32541717  0.66479695 -0.00002105
   0.67526760  0.33949514  0.00000098
   0.11152628  0.22116319  0.95175678
   0.22023235  0.11372359  0.04977835
   0.11314112  0.55924929  0.94421917
   0.22444099  0.44249318  0.05176305
   0.10772290  0.88867108  0.94915922
   0.22134069  0.77678701  0.05342963
   0.44348568  0.22631752  0.94895929
   0.56134538  0.10972292  0.05214513
   0.43872052  0.54828890  0.94801210
   0.54883723  0.43858496  0.05237243
   0.45145733  0.88983930  0.94736370
   0.55664815  0.78278817  0.05123205
   0.77532132  0.21781293  0.94805197
   0.88804739  0.10935403  0.04837708
   0.77840981  0.55535443  0.94647372
   0.88690704  0.44614839  0.05594761
   0.77955422  0.89366461  0.95004765
   0.89229459  0.78104977  0.05097552
unknown system                          
           1
     8.255696    4.747331    0.000000
    -8.272132    4.775804    0.000000
     0.000000    0.000000   30.000000
   V    Mo   W    S 
   3   3   3  18
Direct configuration=    18
   0.66120897 -0.00210456  0.00011146
  -0.00071408 -0.00628013 -0.00001985
   0.33837926  0.33620924 -0.00008725
   0.99943046  0.35328636 -0.00000832
   0.34173347  0.00333015 -0.00008386
   0.65888175  0.66220978  0.00007328
  -0.00068820  0.65176340  0.00000061
   0.32672963  0.66287622 -0.00003833
   0.67405621  0.33616218  0.00004568
   0.11110889  0.22092375  0.95179379
   0.22045161  0.11403883  0.04982757
   0.11332377  0.55930871  0.94420014
   0.22416854  0.44189424  0.05186714
   0.10829606  0.88852219  0.94946135
   0.22184314  0.77730076  0.05287125
   0.44360956  0.22702603  0.94858155
   0.56190072  0.10960979  0.05248707
   0.43813242  0.54760729  0.94760522
   0.54848110  0.43851558  0.05216582
   0.45174085  0.89011163  0.94768662
   0.55651727  0.78343088  0.05150208
   0.77558048  0.21756571  0.94795454
   0.88850110  0.10954433  0.04834393
   0.77793786  0.55534049  0.94700326
   0.88664866  0.44597982  0.05595224
   0.77931214  0.89370443  0.95003823
   0.89164282  0.78033737  0.05066467
unknown system                          
           1
     8.261864    4.748754    0.000000
    -8.280113    4.780368    0.000000
     0.000000    0.000000   30.000000
   V    Mo   W    S 
   3   3   3  18
Direct configuration=    19
   0.66095847 -0.00289668  0.00011187
  -0.00069990 -0.00672183 -0.00002215
   0.33870729  0.33571151 -0.00008597
   0.99945793  0.35400172 -0.00000491
   0.34245395  0.00478937 -0.00009569
   0.65827938  0.66296781  0.00008347
  -0.00075879  0.65110067 -0.00000961
   0.32660716  0.66244196 -0.00006394
   0.67410947  0.33583300  0.00006743
   0.11090582  0.22084613  0.95199735
   0.22056121  0.11403965  0.04981487
   0.11336327  0.55938816  0.94410284
   0.22409896  0.44184783  0.05174853
   0.10856873  0.88846083  0.94954404
   0.22182731  0.77749375  0.05272294
   0.44401036  0.22717110  0.94856272
   0.56205904  0.10973548  0.05240669
   0.43797740  0.54762335  0.94768080
   0.54857699  0.43867159  0.05211231
   0.45160718  0.89016575  0.94776874
   0.55612014  0.78322894  0.05148483
   0.77566443  0.21759845  0.94808918
   0.88872217  0.10968766  0.04811839
   0.77793851  0.55550203  0.94715533
   0.88656390  0.44596589  0.05604995
   0.77918668  0.89357228  0.95006864
   0.89134741  0.77998806  0.05059127
unknown system                          
           1
     8.257891    4.747754    0.000000
    -8.274892    4.777205    0.000000
     0.000000    0.000000   30.000000
   V    Mo   W    S 
   3   3   3  18
Direct configuration=    20
   0.66039037 -0.00420179  0.00009476
  -0.00069153 -0.00732399 -0.00002331
   0.33928530  0.33498986 -0.00006930
   0.99951685  0.35498654 -0.00000294
   0.34283797  0.00592769 -0.00009225
   0.65805927  0.66376940  0.00009238
  -0.00084230  0.65038974 -0.00000347
   0.32620636  0.66227089 -0.00009961
   0.67440920  0.33598728  0.00011305
   0.11072872  0.22079928  0.95225086
   0.22065531  0.11401977  0.04981247
   0.11334842  0.55947211  0.94401990
   0.22405822  0.44183023  0.05159388
   0.10877722  0.88838086  0.94962037
   0.22171768  0.77766303  0.05257501
   0.44447887  0.22734145  0.94852653
   0.56219342  0.10983700  0.05228684
   0.43785579  0.54764810  0.94779890
   0.54872948  0.43889078  0.05205583
   0.45143196  0.89022700  0.94784153
   0.55565434  0.78296691  0.05148770
   0.77573480  0.21762779  0.94826196
   0.88892027  0.10983337  0.04784577
   0.77800607  0.55572781  0.94728418
   0.88653925  0.44602080  0.05612330
   0.77908463  0.89344205  0.95007996
   0.89112851  0.77969049  0.05052562
unknown system                          
           1
     8.248962    4.743871    0.000000
    -8.264412    4.770632    0.000000
     0.000000    0.000000   30.000000
   V    Mo   W    S 
   3   3   3  18
Direct configuration=    21
   0.66072449 -0.00335444  0.00010482
  -0.00069610 -0.00692258 -0.00002066
   0.33892255  0.33548815 -0.00007581
   0.99947617  0.35442584 -0.00000361
   0.34246158  0.00495448 -0.00009327
   0.65834507  0.66318573  0.00009199
  -0.00078506  0.65085573 -0.00000174
   0.32635830  0.66243254 -0.00008153
   0.67433876  0.33603211  0.00009587
   0.11083996  0.22083299  0.95209662
   0.22060865  0.11402087  0.04979444
   0.11335555  0.55941262  0.94407759
   0.22408678  0.44187054  0.05167582
   0.10865155  0.88843779  0.94956970
   0.22175338  0.77752387  0.05267945
   0.44420337  0.22718119  0.94858512
   0.56208293  0.10980729  0.05232615
   0.43795720  0.54770002  0.94775189
   0.54864479  0.43875209  0.05208907
   0.45153486  0.89017878  0.94780070
   0.55593199  0.78307410  0.05144311
   0.77568627  0.21762995  0.94817197
   0.88879006  0.10974585  0.04800559
   0.77799796  0.55559069  0.94719030
   0.88655531  0.44598868  0.05606584
   0.77913211  0.89349891  0.95009522
   0.89125598  0.77987066  0.05056527
unknown system                          
           1
     8.260519    4.747776    0.000000
    -8.278945    4.779695    0.000000
     0.000000    0.000000   30.000000
   V    Mo   W    S 
   3   3   3  18
Direct configuration=    22
   0.66067876 -0.00278320  0.00012830
  -0.00074011 -0.00652147 -0.00001686
   0.33876014  0.33602986 -0.00009661
   0.99941706  0.35420572 -0.00000940
   0.34211131  0.00360664 -0.00010464
   0.65877445  0.66251349  0.00009161
  -0.00075123  0.65111221 -0.00001717
   0.32620979  0.66280852 -0.00007406
   0.67466203  0.33646851  0.00007206
   0.11093398  0.22097628  0.95198694
   0.22066261  0.11400453  0.04977546
   0.11332104  0.55937802  0.94409087
   0.22409122  0.44194642  0.05171210
   0.10858671  0.88839801  0.94950486
   0.22170528  0.77736342  0.05281008
   0.44407913  0.22696511  0.94870524
   0.56197428  0.10979754  0.05230015
   0.43808763  0.54785429  0.94776742
   0.54862984  0.43865324  0.05214105
   0.45161397  0.89012640  0.94774923
   0.55608560  0.78305271  0.05133144
   0.77564594  0.21765178  0.94814421
   0.88863086  0.10976130  0.04809688
   0.77807536  0.55550647  0.94709178
   0.88659835  0.44600250  0.05606782
   0.77905261  0.89346144  0.95012002
   0.89131786  0.77987469  0.05063112
unknown system                          
           1
     8.270123    4.750667    0.000000
    -8.291408    4.787545    0.000000
     0.000000    0.000000   30.000000
   V    Mo   W    S 
   3   3   3  18
Direct configuration=    23
   0.66014395 -0.00456097  0.00010057
  -0.00070383 -0.00740680 -0.00002449
   0.33947731  0.33486311 -0.00007826
   0.99952620  0.35519844 -0.00000499
   0.34284227  0.00591873 -0.00009430
   0.65813011  0.66383921  0.00008804
  -0.00086573  0.65026617 -0.00001265
   0.32605817  0.66237920 -0.00010508
   0.67456315  0.33620402  0.00010832
   0.11071669  0.22083991  0.95230247
   0.22068673  0.11400865  0.04982510
   0.11332298  0.55949671  0.94399004
   0.22405620  0.44184525  0.05155795
   0.10880109  0.88833737  0.94961366
   0.22166830  0.77768143  0.05257817
   0.44458254  0.22734704  0.94853460
   0.56220342  0.10984118  0.05224730
   0.43785911  0.54767464  0.94784216
   0.54878451  0.43894516  0.05206668
   0.45138539  0.89023213  0.94783549
   0.55555651  0.78288773  0.05147734
   0.77573900  0.21763763  0.94830719
   0.88892228  0.10988016  0.04778640
   0.77805001  0.55578255  0.94728629
   0.88655574  0.44605135  0.05616042
   0.77904684  0.89340386  0.95007102
   0.89110550  0.77962058  0.05054046
unknown system                          
           1
     8.271081    4.750660    0.000000
    -8.292772    4.788238    0.000000
     0.000000    0.000000   30.000000
   V    Mo   W    S 
   3   3   3  18
Direct configuration=    24
   0.65942606 -0.00655467  0.00007560
  -0.00066708 -0.00828976 -0.00002970
   0.34034659  0.33365097 -0.00005887
   0.99965631  0.35628949  0.00000364
   0.34347838  0.00802303 -0.00007885
   0.65761102  0.66506947  0.00008467
  -0.00099118  0.64941244 -0.00000346
   0.32579454  0.66210904 -0.00013493
   0.67456377  0.33618948  0.00015029
   0.11052781  0.22076381  0.95262598
   0.22072355  0.11401222  0.04988867
   0.11330361  0.55962462  0.94386523
   0.22403602  0.44176118  0.05138778
   0.10899661  0.88825078  0.94969586
   0.22158532  0.77799146  0.05238027
   0.44510994  0.22770422  0.94836049
   0.56243299  0.10988710  0.05217577
   0.43763686  0.54750457  0.94793755
   0.54896490  0.43925780  0.05201884
   0.45112679  0.89032639  0.94788639