<?xml version="1.0" encoding="ISO-8859-1"?>
<modeling>
 <generator>
  <i name="program" type="string">vasp </i>
  <i name="version" type="string">5.4.1  </i>
  <i name="subversion" type="string">05Feb16 (build Jul 05 2020 17:13:04) complex                          parallel </i>
  <i name="platform" type="string">IFC91_ompi </i>
  <i name="date" type="string">2024 07 04 </i>
  <i name="time" type="string">21:20:35 </i>
 </generator>
 <incar>
  <i type="int" name="ISTART">     0</i>
  <i type="string" name="PREC">normal</i>
  <i type="string" name="ALGO"> Normal</i>
  <i type="int" name="ISPIN">     1</i>
  <i type="int" name="ICHARG">     2</i>
  <i type="int" name="IBRION">     1</i>
  <i type="int" name="NSW">   100</i>
  <i type="int" name="ISIF">     3</i>
  <i type="int" name="ISYM">     0</i>
  <i name="SYMPREC">      0.00000001</i>
  <i name="POTIM">      0.50000000</i>
  <i type="logical" name="LREAL"> F  </i>
  <i type="logical" name="LPLANE"> F  </i>
  <i type="int" name="ISMEAR">     0</i>
  <i type="logical" name="LWAVE"> F  </i>
  <i type="logical" name="LCHARG"> F  </i>
  <v type="int" name="KPOINT_BSE">    -1     0     0     0</v>
 </incar>
 <kpoints>
  <generation param="Gamma">
   <v type="int" name="divisions">       8        8        1 </v>
   <v name="usershift">      0.00000000       0.00000000       0.00000000 </v>
   <v name="genvec1">      0.12500000       0.00000000       0.00000000 </v>
   <v name="genvec2">     -0.00000000       0.12500000       0.00000000 </v>
   <v name="genvec3">      0.00000000       0.00000000       1.00000000 </v>
   <v name="shift">      0.00000000       0.00000000       0.00000000 </v>
  </generation>
  <varray name="kpointlist" >
   <v>       0.00000000       0.00000000       0.00000000 </v>
   <v>       0.12500000       0.00000000       0.00000000 </v>
   <v>       0.25000000       0.00000000       0.00000000 </v>
   <v>       0.37500000       0.00000000       0.00000000 </v>
   <v>       0.50000000       0.00000000       0.00000000 </v>
   <v>       0.00000000       0.12500000       0.00000000 </v>
   <v>       0.12500000       0.12500000       0.00000000 </v>
   <v>       0.25000000       0.12500000       0.00000000 </v>
   <v>       0.37500000       0.12500000       0.00000000 </v>
   <v>       0.50000000       0.12500000       0.00000000 </v>
   <v>      -0.37500000       0.12500000       0.00000000 </v>
   <v>      -0.25000000       0.12500000       0.00000000 </v>
   <v>      -0.12500000       0.12500000       0.00000000 </v>
   <v>       0.00000000       0.25000000       0.00000000 </v>
   <v>       0.12500000       0.25000000       0.00000000 </v>
   <v>       0.25000000       0.25000000       0.00000000 </v>
   <v>       0.37500000       0.25000000       0.00000000 </v>
   <v>       0.50000000       0.25000000       0.00000000 </v>
   <v>      -0.37500000       0.25000000       0.00000000 </v>
   <v>      -0.25000000       0.25000000       0.00000000 </v>
   <v>      -0.12500000       0.25000000       0.00000000 </v>
   <v>      -0.00000000       0.37500000       0.00000000 </v>
   <v>       0.12500000       0.37500000       0.00000000 </v>
   <v>       0.25000000       0.37500000       0.00000000 </v>
   <v>       0.37500000       0.37500000       0.00000000 </v>
   <v>       0.50000000       0.37500000       0.00000000 </v>
   <v>      -0.37500000       0.37500000       0.00000000 </v>
   <v>      -0.25000000       0.37500000       0.00000000 </v>
   <v>      -0.12500000       0.37500000       0.00000000 </v>
   <v>       0.00000000       0.50000000       0.00000000 </v>
   <v>       0.12500000       0.50000000       0.00000000 </v>
   <v>       0.25000000       0.50000000       0.00000000 </v>
   <v>       0.37500000       0.50000000       0.00000000 </v>
   <v>       0.50000000       0.50000000       0.00000000 </v>
  </varray>
  <varray name="weights" >
   <v>       0.01562500 </v>
   <v>       0.03125000 </v>
   <v>       0.03125000 </v>
   <v>       0.03125000 </v>
   <v>       0.01562500 </v>
   <v>       0.03125000 </v>
   <v>       0.03125000 </v>
   <v>       0.03125000 </v>
   <v>       0.03125000 </v>
   <v>       0.03125000 </v>
   <v>       0.03125000 </v>
   <v>       0.03125000 </v>
   <v>       0.03125000 </v>
   <v>       0.03125000 </v>
   <v>       0.03125000 </v>
   <v>       0.03125000 </v>
   <v>       0.03125000 </v>
   <v>       0.03125000 </v>
   <v>       0.03125000 </v>
   <v>       0.03125000 </v>
   <v>       0.03125000 </v>
   <v>       0.03125000 </v>
   <v>       0.03125000 </v>
   <v>       0.03125000 </v>
   <v>       0.03125000 </v>
   <v>       0.03125000 </v>
   <v>       0.03125000 </v>
   <v>       0.03125000 </v>
   <v>       0.03125000 </v>
   <v>       0.01562500 </v>
   <v>       0.03125000 </v>
   <v>       0.03125000 </v>
   <v>       0.03125000 </v>
   <v>       0.01562500 </v>
  </varray>
 </kpoints>
 <parameters>
  <separator name="general" >
   <i type="string" name="SYSTEM">unknown system</i>
   <i type="logical" name="LCOMPAT"> F  </i>
  </separator>
  <separator name="electronic" >
   <i type="string" name="PREC">normal</i>
   <i name="ENMAX">    280.00000000</i>
   <i name="ENAUG">    373.43800000</i>
   <i name="EDIFF">      0.00010000</i>
   <i type="int" name="IALGO">    38</i>
   <i type="int" name="IWAVPR">    11</i>
   <i type="int" name="NBANDS">   120</i>
   <i name="NELECT">    159.00000000</i>
   <i type="int" name="TURBO">     0</i>
   <i type="int" name="IRESTART">     0</i>
   <i type="int" name="NREBOOT">     0</i>
   <i type="int" name="NMIN">     0</i>
   <i name="EREF">      0.00000000</i>
   <separator name="electronic smearing" >
    <i type="int" name="ISMEAR">     0</i>
    <i name="SIGMA">      0.20000000</i>
    <i name="KSPACING">      0.50000000</i>
    <i type="logical" name="KGAMMA"> T  </i>
   </separator>
   <separator name="electronic projectors" >
    <i type="logical" name="LREAL"> F  </i>
    <v name="ROPT">      0.00000000      0.00000000      0.00000000      0.00000000</v>
    <i type="int" name="LMAXPAW">  -100</i>
    <i type="int" name="LMAXMIX">     2</i>
    <i type="logical" name="NLSPLINE"> F  </i>
   </separator>
   <separator name="electronic startup" >
    <i type="int" name="ISTART">     0</i>
    <i type="int" name="ICHARG">     2</i>
    <i type="int" name="INIWAV">     1</i>
   </separator>
   <separator name="electronic spin" >
    <i type="int" name="ISPIN">     1</i>
    <i type="logical" name="LNONCOLLINEAR"> F  </i>
    <v name="MAGMOM">      1.00000000      1.00000000      1.00000000      1.00000000      1.00000000      1.00000000      1.00000000      1.00000000      1.00000000      1.00000000      1.00000000      1.00000000      1.00000000      1.00000000      1.00000000      1.00000000      1.00000000      1.00000000      1.00000000      1.00000000
      1.00000000      1.00000000      1.00000000      1.00000000      1.00000000      1.00000000      1.00000000</v>
    <i name="NUPDOWN">     -1.00000000</i>
    <i type="logical" name="LSORBIT"> F  </i>
    <v name="SAXIS">      0.00000000      0.00000000      1.00000000</v>
    <i type="logical" name="LSPIRAL"> F  </i>
    <v name="QSPIRAL">      0.00000000      0.00000000      0.00000000</v>
    <i type="logical" name="LZEROZ"> F  </i>
   </separator>
   <separator name="electronic exchange-correlation" >
    <i type="logical" name="LASPH"> F  </i>
    <i type="logical" name="LMETAGGA"> F  </i>
   </separator>
   <separator name="electronic convergence" >
    <i type="int" name="NELM">    60</i>
    <i type="int" name="NELMDL">    -5</i>
    <i type="int" name="NELMIN">     2</i>
    <i name="ENINI">    280.00000000</i>
    <separator name="electronic convergence detail" >
     <i type="logical" name="LDIAG"> T  </i>
     <i type="logical" name="LSUBROT"> F  </i>
     <i name="WEIMIN">      0.00100000</i>
     <i name="EBREAK">      0.00000021</i>
     <i name="DEPER">      0.30000000</i>
     <i type="int" name="NRMM">     4</i>
     <i name="TIME">      0.40000000</i>
    </separator>
   </separator>
   <separator name="electronic mixer" >
    <i name="AMIX">      0.40000000</i>
    <i name="BMIX">      1.00000000</i>
    <i name="AMIN">      0.10000000</i>
    <i name="AMIX_MAG">      1.60000000</i>
    <i name="BMIX_MAG">      1.00000000</i>
    <separator name="electronic mixer details" >
     <i type="int" name="IMIX">     4</i>
     <i type="logical" name="MIXFIRST"> F  </i>
     <i type="int" name="MAXMIX">   -45</i>
     <i name="WC">    100.00000000</i>
     <i type="int" name="INIMIX">     1</i>
     <i type="int" name="MIXPRE">     1</i>
     <i type="int" name="MREMOVE">     5</i>
    </separator>
   </separator>
   <separator name="electronic dipolcorrection" >
    <i type="logical" name="LDIPOL"> F  </i>
    <i type="logical" name="LMONO"> F  </i>
    <i type="int" name="IDIPOL">     0</i>
    <i name="EPSILON">      1.00000000</i>
    <v name="DIPOL">   -100.00000000   -100.00000000   -100.00000000</v>
    <i name="EFIELD">      0.00000000</i>
   </separator>
  </separator>
  <separator name="grids" >
   <i type="int" name="NGX">    42</i>
   <i type="int" name="NGY">    42</i>
   <i type="int" name="NGZ">   126</i>
   <i type="int" name="NGXF">    84</i>
   <i type="int" name="NGYF">    84</i>
   <i type="int" name="NGZF">   252</i>
   <i type="logical" name="ADDGRID"> F  </i>
  </separator>
  <separator name="ionic" >
   <i type="int" name="NSW">   100</i>
   <i type="int" name="IBRION">     1</i>
   <i type="int" name="ISIF">     3</i>
   <i name="PSTRESS">      0.00000000</i>
   <i name="EDIFFG">      0.00100000</i>
   <i type="int" name="NFREE">     0</i>
   <i name="POTIM">      0.50000000</i>
   <i name="SMASS">     -3.00000000</i>
   <i name="SCALEE">      1.00000000</i>
  </separator>
  <separator name="ionic md" >
   <i name="TEBEG">      0.00010000</i>
   <i name="TEEND">      0.00010000</i>
   <i type="int" name="NBLOCK">     1</i>
   <i type="int" name="KBLOCK">   100</i>
   <i type="int" name="NPACO">   256</i>
   <i name="APACO">     16.00000000</i>
  </separator>
  <separator name="symmetry" >
   <i type="int" name="ISYM">     0</i>
   <i name="SYMPREC">      0.00000001</i>
  </separator>
  <separator name="dos" >
   <i type="logical" name="LORBIT"> F  </i>
   <v name="RWIGS">     -1.00000000     -1.00000000     -1.00000000     -1.00000000</v>
   <i type="int" name="NEDOS">   301</i>
   <i name="EMIN">     10.00000000</i>
   <i name="EMAX">    -10.00000000</i>
   <i name="EFERMI">      0.00000000</i>
  </separator>
  <separator name="writing" >
   <i type="int" name="NWRITE">     2</i>
   <i type="logical" name="LWAVE"> F  </i>
   <i type="logical" name="LCHARG"> F  </i>
   <i type="logical" name="LPARD"> F  </i>
   <i type="logical" name="LVTOT"> F  </i>
   <i type="logical" name="LVHAR"> F  </i>
   <i type="logical" name="LELF"> F  </i>
   <i type="logical" name="LOPTICS"> F  </i>
   <v name="STM">      0.00000000      0.00000000      0.00000000      0.00000000      0.00000000      0.00000000      0.00000000</v>
  </separator>
  <separator name="performance" >
   <i type="int" name="NPAR">    40</i>
   <i type="int" name="NSIM">     4</i>
   <i type="int" name="NBLK">    -1</i>
   <i type="logical" name="LPLANE"> F  </i>
   <i type="logical" name="LSCALAPACK"> T  </i>
   <i type="logical" name="LSCAAWARE"> F  </i>
   <i type="logical" name="LSCALU"> F  </i>
   <i type="logical" name="LASYNC"> F  </i>
   <i type="logical" name="LORBITALREAL"> F  </i>
  </separator>
  <separator name="miscellaneous" >
   <i type="int" name="IDIOT">     3</i>
   <i type="logical" name="LMUSIC"> F  </i>
   <v name="POMASS">     50.94100000     95.94000000    183.85000000     32.06600000</v>
   <v name="DARWINR">      0.00000000      0.00000000      0.00000000      0.00000000</v>
   <v name="DARWINV">      1.00000000      1.00000000      1.00000000      1.00000000</v>
   <i type="logical" name="LCORR"> T  </i>
  </separator>
  <i type="logical" name="GGA_COMPAT"> T  </i>
  <i type="logical" name="LBERRY"> F  </i>
  <i type="int" name="ICORELEVEL">     0</i>
  <i type="logical" name="LDAU"> F  </i>
  <i type="int" name="I_CONSTRAINED_M">     0</i>
  <separator name="electronic exchange-correlation" >
   <i type="string" name="GGA">--</i>
   <i type="int" name="VOSKOWN">     0</i>
   <i type="logical" name="LHFCALC"> F  </i>
   <i type="string" name="PRECFOCK"></i>
   <i type="logical" name="LSYMGRAD"> F  </i>
   <i type="logical" name="LHFONE"> F  </i>
   <i type="logical" name="LRHFCALC"> F  </i>
   <i type="logical" name="LTHOMAS"> F  </i>
   <i type="logical" name="LMODELHF"> F  </i>
   <i name="ENCUT4O">     -1.00000000</i>
   <i type="int" name="EXXOEP">     0</i>
   <i type="int" name="FOURORBIT">     0</i>
   <i name="AEXX">      0.00000000</i>
   <i name="HFALPHA">      0.00000000</i>
   <i name="MCALPHA">      0.00000000</i>
   <i name="ALDAX">      1.00000000</i>
   <i name="AGGAX">      1.00000000</i>
   <i name="ALDAC">      1.00000000</i>
   <i name="AGGAC">      1.00000000</i>
   <i type="int" name="NKREDX">     1</i>
   <i type="int" name="NKREDY">     1</i>
   <i type="int" name="NKREDZ">     1</i>
   <i type="logical" name="SHIFTRED"> F  </i>
   <i type="logical" name="ODDONLY"> F  </i>
   <i type="logical" name="EVENONLY"> F  </i>
   <i type="int" name="LMAXFOCK">     0</i>
   <i type="int" name="NMAXFOCKAE">     0</i>
   <i type="logical" name="LFOCKAEDFT"> F  </i>
   <i name="HFSCREEN">      0.00000000</i>
   <i name="HFSCREENC">      0.00000000</i>
   <i type="int" name="NBANDSGWLOW">     0</i>
  </separator>
  <separator name="vdW DFT" >
   <i type="logical" name="LUSE_VDW"> F  </i>
   <i name="Zab_VDW">     -0.84910000</i>
   <i name="PARAM1">      0.12340000</i>
   <i name="PARAM2">      1.00000000</i>
   <i name="PARAM3">      0.00000000</i>
  </separator>
  <separator name="model GW" >
   <i type="int" name="MODEL_GW">     0</i>
   <i name="MODEL_EPS0">     58.26239943</i>
   <i name="MODEL_ALPHA">      1.00000000</i>
  </separator>
  <separator name="linear response parameters" >
   <i type="logical" name="LEPSILON"> F  </i>
   <i type="logical" name="LRPA"> F  </i>
   <i type="logical" name="LNABLA"> F  </i>
   <i type="logical" name="LVEL"> F  </i>
   <i type="int" name="KINTER">     0</i>
   <i name="CSHIFT">      0.10000000</i>
   <i name="OMEGAMAX">     -1.00000000</i>
   <i name="DEG_THRESHOLD">      0.00200000</i>
  </separator>
  <separator name="orbital magnetization" >
   <i type="logical" name="NUCIND"> F  </i>
   <v name="MAGPOS">      0.00000000      0.00000000      0.00000000</v>
   <i type="logical" name="LNICSALL"> T  </i>
   <i type="logical" name="ORBITALMAG"> F  </i>
   <i type="logical" name="LMAGBLOCH"> F  </i>
   <i type="logical" name="LCHIMAG"> F  </i>
   <i type="logical" name="LGAUGE"> T  </i>
   <i type="int" name="MAGATOM">     0</i>
   <v name="MAGDIPOL">      0.00000000      0.00000000      0.00000000</v>
   <v name="AVECCONST">      0.00000000      0.00000000      0.00000000</v>
  </separator>
  <separator name="response functions" >
   <i type="logical" name="LADDER"> F  </i>
   <i type="logical" name="LFXC"> F  </i>
   <i type="logical" name="LHARTREE"> T  </i>
   <i type="int" name="IBSE">     0</i>
   <v type="int" name="KPOINT">    -1     0     0     0</v>
   <i type="logical" name="LTCTE"> F  </i>
   <i type="logical" name="LTETE"> F  </i>
   <i type="logical" name="LTRIPLET"> F  </i>
   <i type="logical" name="LFXCEPS"> F  </i>
   <i type="logical" name="LFXHEG"> F  </i>
   <i type="int" name="NATURALO">     0</i>
   <i type="logical" name="L2ORDER"> F  </i>
   <i type="logical" name="LUSEW"> F  </i>
   <i name="ENCUTGW">     -2.00000000</i>
   <i name="ENCUTGWSOFT">     -2.00000000</i>
   <i name="ENCUTLF">     -1.00000000</i>
   <i type="int" name="LMAXMP2">    -1</i>
   <i name="SCISSOR">      0.00000000</i>
   <i type="int" name="NOMEGA">     0</i>
   <i type="int" name="NOMEGAR">     0</i>
   <i type="int" name="NBANDSGW">    -1</i>
   <i type="int" name="NBANDSO">    -1</i>
   <i type="int" name="NBANDSV">    -1</i>
   <i type="int" name="NELM">     1</i>
   <i type="int" name="NELMHF">     1</i>
   <i type="int" name="DIM">     3</i>
   <i type="int" name="ANTIRES">     0</i>
   <i name="OMEGAMAX">    -30.00000000</i>
   <i name="OMEGAMIN">    -30.00000000</i>
   <i name="OMEGATL">   -200.00000000</i>
   <i type="int" name="OMEGAGRID">     0</i>
   <i name="CSHIFT">     -0.10000000</i>
   <i type="logical" name="SELFENERGY"> F  </i>
   <i type="logical" name="LSPECTRAL"> F  </i>
   <i type="logical" name="LSPECTRALGW"> F  </i>
   <i type="logical" name="LSINGLES"> F  </i>
   <i type="logical" name="LFERMIGW"> F  </i>
   <i type="logical" name="ODDONLYGW"> F  </i>
   <i type="logical" name="EVENONLYGW"> F  </i>
   <i type="int" name="NKREDLFX">     1</i>
   <i type="int" name="NKREDLFY">     1</i>
   <i type="int" name="NKREDLFZ">     1</i>
   <i type="int" name="MAXMEM">  1800</i>
   <i type="int" name="TELESCOPE">     0</i>
   <i type="int" name="TAUPAR">     1</i>
   <i type="int" name="OMEGAPAR">    -1</i>
   <i name="LAMBDA">      1.00000000</i>
  </separator>
  <separator name="External order field" >
   <i name="OFIELD_KAPPA">      0.00000000</i>
   <v name="OFIELD_K">      0.00000000      0.00000000      0.00000000</v>
   <i name="OFIELD_Q6_NEAR">      0.00000000</i>
   <i name="OFIELD_Q6_FAR">      0.00000000</i>
   <i name="OFIELD_A">      0.00000000</i>
  </separator>
 </parameters>
 <atominfo>
  <atoms>      27 </atoms>
  <types>       4 </types>
  <array name="atoms" >
   <dimension dim="1">ion</dimension>
   <field type="string">element</field>
   <field type="int">atomtype</field>
   <set>
    <rc><c>V </c><c>   1</c></rc>
    <rc><c>V </c><c>   1</c></rc>
    <rc><c>V </c><c>   1</c></rc>
    <rc><c>Mo</c><c>   2</c></rc>
    <rc><c>Mo</c><c>   2</c></rc>
    <rc><c>Mo</c><c>   2</c></rc>
    <rc><c>W </c><c>   3</c></rc>
    <rc><c>W </c><c>   3</c></rc>
    <rc><c>W </c><c>   3</c></rc>
    <rc><c>S </c><c>   4</c></rc>
    <rc><c>S </c><c>   4</c></rc>
    <rc><c>S </c><c>   4</c></rc>
    <rc><c>S </c><c>   4</c></rc>
    <rc><c>S </c><c>   4</c></rc>
    <rc><c>S </c><c>   4</c></rc>
    <rc><c>S </c><c>   4</c></rc>
    <rc><c>S </c><c>   4</c></rc>
    <rc><c>S </c><c>   4</c></rc>
    <rc><c>S </c><c>   4</c></rc>
    <rc><c>S </c><c>   4</c></rc>
    <rc><c>S </c><c>   4</c></rc>
    <rc><c>S </c><c>   4</c></rc>
    <rc><c>S </c><c>   4</c></rc>
    <rc><c>S </c><c>   4</c></rc>
    <rc><c>S </c><c>   4</c></rc>
    <rc><c>S </c><c>   4</c></rc>
    <rc><c>S </c><c>   4</c></rc>
   </set>
  </array>
  <array name="atomtypes" >
   <dimension dim="1">type</dimension>
   <field type="int">atomspertype</field>
   <field type="string">element</field>
   <field>mass</field>
   <field>valence</field>
   <field type="string">pseudopotential</field>
   <set>
    <rc><c>   3</c><c>V </c><c>     50.94100000</c><c>      5.00000000</c><c> PAW_PBE V 08Apr2002                    </c></rc>
    <rc><c>   3</c><c>Mo</c><c>     95.94000000</c><c>      6.00000000</c><c> PAW_PBE Mo 08Apr2002                   </c></rc>
    <rc><c>   3</c><c>W </c><c>    183.85000000</c><c>      6.00000000</c><c> PAW_PBE W 08Apr2002                    </c></rc>
    <rc><c>  18</c><c>S </c><c>     32.06600000</c><c>      6.00000000</c><c>  PAW_PBE S 17Jan2003                   </c></rc>
   </set>
  </array>
 </atominfo>
 <structure name="initialpos" >
  <crystal>
   <varray name="basis" >
    <v>       8.66999996       5.03999989       0.00000000 </v>
    <v>      -8.66999982       5.04000013       0.00000000 </v>
    <v>       0.00000000       0.00000000      30.00000000 </v>
   </varray>
   <i name="volume">   2621.80797419 </i>
   <varray name="rec_basis" >
    <v>       0.05767013       0.09920635       0.00000000 </v>
    <v>      -0.05767013       0.09920635       0.00000000 </v>
    <v>       0.00000000       0.00000000       0.03333333 </v>
   </varray>
  </crystal>
  <varray name="positions" >
   <v>       1.00000000       0.33333334       0.00000000 </v>
   <v>       0.00000000       0.00000000       0.00000000 </v>
   <v>       0.00000000       0.66666669       0.00000000 </v>
   <v>       0.33333334       0.33333334       0.00000000 </v>
   <v>       0.33333334       0.00000000       0.00000000 </v>
   <v>       0.66666669       0.33333334       0.00000000 </v>
   <v>       0.33333334       0.66666669       0.00000000 </v>
   <v>       0.66666669       0.00000000       0.00000000 </v>
   <v>       0.66666669       0.66666669       0.00000000 </v>
   <v>       0.11068511       0.22244981       0.95539999 </v>
   <v>       0.22244981       0.11068511       0.04460000 </v>
   <v>       0.11068511       0.55578315       0.95539999 </v>
   <v>       0.22244981       0.44401845       0.04460000 </v>
   <v>       0.11068511       0.88911647       0.95539999 </v>
   <v>       0.22244981       0.77735180       0.04460000 </v>
   <v>       0.44401845       0.22244981       0.95539999 </v>
   <v>       0.55578315       0.11068511       0.04460000 </v>
   <v>       0.44401845       0.55578315       0.95539999 </v>
   <v>       0.55578315       0.44401845       0.04460000 </v>
   <v>       0.44401845       0.88911647       0.95539999 </v>
   <v>       0.55578315       0.77735180       0.04460000 </v>
   <v>       0.77735180       0.22244981       0.95539999 </v>
   <v>       0.88911647       0.11068511       0.04460000 </v>
   <v>       0.77735180       0.55578315       0.95539999 </v>
   <v>       0.88911647       0.44401845       0.04460000 </v>
   <v>       0.77735180       0.88911647       0.95539999 </v>
   <v>       0.88911647       0.77735180       0.04460000 </v>
  </varray>
 </structure>
 <calculation>
  <scstep>
   <time name="dav">   21.64   21.69</time>
   <time name="total">   21.68   21.74</time>
   <energy>
    <i name="alphaZ">     81.65567618 </i>
    <i name="ewald">  41891.19377234 </i>
    <i name="hartreedc"> -47723.83912510 </i>
    <i name="XCdc">   -242.92452230 </i>
    <i name="pawpsdc">   3467.42045192 </i>
    <i name="pawaedc">  -2871.19716117 </i>
    <i name="eentropy">     -0.53156128 </i>
    <i name="bandstr">   -237.34780931 </i>
    <i name="atom">   6761.44252427 </i>
    <i name="e_fr_energy">   1125.87224555 </i>
    <i name="e_wo_entrp">   1126.40380683 </i>
    <i name="e_0_energy">   1126.13802619 </i>
   </energy>
  </scstep>
  <scstep>
   <time name="dav">   28.16   28.22</time>
   <time name="total">   28.16   28.23</time>
   <energy>
    <i name="e_fr_energy">     -0.29612919 </i>
    <i name="e_wo_entrp">     -0.06372065 </i>
    <i name="e_0_energy">     -0.17992492 </i>
   </energy>
  </scstep>
  <scstep>
   <time name="dav">   27.56   27.63</time>
   <time name="total">   27.57   27.64</time>
   <energy>
    <i name="e_fr_energy">   -199.85422149 </i>
    <i name="e_wo_entrp">   -199.57600879 </i>
    <i name="e_0_energy">   -199.71511514 </i>
   </energy>
  </scstep>
  <scstep>
   <time name="dav">   30.46   30.53</time>
   <time name="total">   30.46   30.54</time>
   <energy>
    <i name="e_fr_energy">   -209.05905269 </i>
    <i name="e_wo_entrp">   -208.78099764 </i>
    <i name="e_0_energy">   -208.92002517 </i>
   </energy>
  </scstep>
  <scstep>
   <time name="dav">   28.64   28.70</time>
   <time name="total">   29.10   29.18</time>
   <energy>
    <i name="e_fr_energy">   -209.35572802 </i>
    <i name="e_wo_entrp">   -209.08073968 </i>
    <i name="e_0_energy">   -209.21823385 </i>
   </energy>
  </scstep>
  <scstep>
   <time name="dav">   30.82   30.89</time>
   <time name="total">   31.32   31.40</time>
   <energy>
    <i name="e_fr_energy">   -240.94252313 </i>
    <i name="e_wo_entrp">   -240.66770853 </i>
    <i name="e_0_energy">   -240.80511583 </i>
   </energy>
  </scstep>
  <scstep>
   <time name="dav">   31.89   31.97</time>
   <time name="total">   32.40   32.48</time>
   <energy>
    <i name="e_fr_energy">   -196.27954885 </i>
    <i name="e_wo_entrp">   -195.94870984 </i>
    <i name="e_0_energy">   -196.11412934 </i>
   </energy>
  </scstep>
  <scstep>
   <time name="dav">   29.79   29.86</time>
   <time name="total">   30.31   30.39</time>
   <energy>
    <i name="e_fr_energy">   -189.53152765 </i>
    <i name="e_wo_entrp">   -189.19457565 </i>
    <i name="e_0_energy">   -189.36305165 </i>
   </energy>
  </scstep>
  <scstep>
   <time name="dav">   31.20   31.28</time>
   <time name="total">   31.72   31.81</time>
   <energy>
    <i name="e_fr_energy">   -188.08300828 </i>
    <i name="e_wo_entrp">   -187.73743076 </i>
    <i name="e_0_energy">   -187.91021952 </i>
   </energy>
  </scstep>
  <scstep>
   <time name="dav">   32.67   32.75</time>
   <time name="total">   33.21   33.29</time>
   <energy>
    <i name="e_fr_energy">   -186.92920547 </i>
    <i name="e_wo_entrp">   -186.57537903 </i>
    <i name="e_0_energy">   -186.75229225 </i>
   </energy>
  </scstep>
  <scstep>
   <time name="dav">   32.45   32.53</time>
   <time name="total">   32.98   33.07</time>
   <energy>
    <i name="e_fr_energy">   -187.07855887 </i>
    <i name="e_wo_entrp">   -186.73957073 </i>
    <i name="e_0_energy">   -186.90906480 </i>
   </energy>
  </scstep>
  <scstep>
   <time name="dav">   31.52   31.59</time>
   <time name="total">   32.05   32.14</time>
   <energy>
    <i name="e_fr_energy">   -186.92470918 </i>
    <i name="e_wo_entrp">   -186.58401782 </i>
    <i name="e_0_energy">   -186.75436350 </i>
   </energy>
  </scstep>
  <scstep>
   <time name="dav">   31.99   32.07</time>
   <time name="total">   32.53   32.61</time>
   <energy>
    <i name="e_fr_energy">   -186.85543694 </i>
    <i name="e_wo_entrp">   -186.51106552 </i>
    <i name="e_0_energy">   -186.68325123 </i>
   </energy>
  </scstep>
  <scstep>
   <time name="dav">   31.25   31.33</time>
   <time name="total">   31.79   31.87</time>
   <energy>
    <i name="e_fr_energy">   -186.84305300 </i>
    <i name="e_wo_entrp">   -186.49688375 </i>
    <i name="e_0_energy">   -186.66996838 </i>
   </energy>
  </scstep>
  <scstep>
   <time name="dav">   32.10   32.18</time>
   <time name="total">   32.64   32.72</time>
   <energy>
    <i name="e_fr_energy">   -186.82968260 </i>
    <i name="e_wo_entrp">   -186.48259143 </i>
    <i name="e_0_energy">   -186.65613701 </i>
   </energy>
  </scstep>
  <scstep>
   <time name="dav">   29.28   29.35</time>
   <time name="total">   29.81   29.89</time>
   <energy>
    <i name="e_fr_energy">   -186.82745094 </i>
    <i name="e_wo_entrp">   -186.48081283 </i>
    <i name="e_0_energy">   -186.65413188 </i>
   </energy>
  </scstep>
  <scstep>
   <time name="dav">   30.79   30.86</time>
   <time name="total">   31.33   31.41</time>
   <energy>
    <i name="e_fr_energy">   -186.82612958 </i>
    <i name="e_wo_entrp">   -186.48030938 </i>
    <i name="e_0_energy">   -186.65321948 </i>
   </energy>
  </scstep>
  <scstep>
   <time name="dav">   30.94   31.01</time>
   <time name="total">   31.48   31.56</time>
   <energy>
    <i name="e_fr_energy">   -186.82563021 </i>
    <i name="e_wo_entrp">   -186.47939865 </i>
    <i name="e_0_energy">   -186.65251443 </i>
   </energy>
  </scstep>
  <scstep>
   <time name="dav">   26.63   26.70</time>
   <time name="total">   27.17   27.24</time>
   <energy>
    <i name="e_fr_energy">   -186.82627703 </i>
    <i name="e_wo_entrp">   -186.48044878 </i>
    <i name="e_0_energy">   -186.65336291 </i>
   </energy>
  </scstep>
  <scstep>
   <time name="dav">   20.32   20.37</time>
   <time name="total">   20.86   20.91</time>
   <energy>
    <i name="e_fr_energy">   -186.82673477 </i>
    <i name="e_wo_entrp">   -186.48097310 </i>
    <i name="e_0_energy">   -186.65385394 </i>
   </energy>
  </scstep>
  <scstep>
   <time name="dav">   20.30   20.35</time>
   <time name="total">   20.84   20.89</time>
   <energy>
    <i name="e_fr_energy">   -186.82780872 </i>
    <i name="e_wo_entrp">   -186.48199324 </i>
    <i name="e_0_energy">   -186.65490098 </i>
   </energy>
  </scstep>
  <scstep>
   <time name="dav">   21.58   21.63</time>
   <time name="total">   22.12   22.17</time>
   <energy>
    <i name="e_fr_energy">   -186.82890585 </i>
    <i name="e_wo_entrp">   -186.48306918 </i>
    <i name="e_0_energy">   -186.65598752 </i>
   </energy>
  </scstep>
  <scstep>
   <time name="dav">   17.50   17.54</time>
   <time name="total">   18.04   18.09</time>
   <energy>
    <i name="e_fr_energy">   -186.82936953 </i>
    <i name="e_wo_entrp">   -186.48353401 </i>
    <i name="e_0_energy">   -186.65645177 </i>
   </energy>
  </scstep>
  <scstep>
   <time name="dav">   19.65   19.70</time>
   <time name="total">   20.19   20.25</time>
   <energy>
    <i name="e_fr_energy">   -186.83001444 </i>
    <i name="e_wo_entrp">   -186.48417708 </i>
    <i name="e_0_energy">   -186.65709576 </i>
   </energy>
  </scstep>
  <scstep>
   <time name="dav">   18.14   18.18</time>
   <time name="total">   18.67   18.73</time>
   <energy>
    <i name="e_fr_energy">   -186.83036415 </i>
    <i name="e_wo_entrp">   -186.48451326 </i>
    <i name="e_0_energy">   -186.65743870 </i>
   </energy>
  </scstep>
  <scstep>
   <time name="dav">   18.92   18.96</time>
   <time name="total">   19.45   19.50</time>
   <energy>
    <i name="e_fr_energy">   -186.83060798 </i>
    <i name="e_wo_entrp">   -186.48476827 </i>
    <i name="e_0_energy">   -186.65768812 </i>
   </energy>
  </scstep>
  <scstep>
   <time name="dav">   20.59   20.64</time>
   <time name="total">   20.62   20.68</time>
   <energy>
    <i name="alphaZ">     81.65567618 </i>
    <i name="ewald">  41891.19377234 </i>
    <i name="hartreedc"> -47833.69806094 </i>
    <i name="XCdc">   -231.60754249 </i>
    <i name="pawpsdc">   4192.07300193 </i>
    <i name="pawaedc">  -3610.07334087 </i>
    <i name="eentropy">     -0.34583933 </i>
    <i name="bandstr">  -1437.47086847 </i>
    <i name="atom">   6761.44252427 </i>
    <i name="e_fr_energy">   -186.83067738 </i>
    <i name="e_wo_entrp">   -186.48483805 </i>
    <i name="e_0_energy">   -186.65775772 </i>
   </energy>
  </scstep>
  <structure>
   <crystal>
    <varray name="basis" >
     <v>       8.66999996       5.03999989       0.00000000 </v>
     <v>      -8.66999982       5.04000013       0.00000000 </v>
     <v>       0.00000000       0.00000000      30.00000000 </v>
    </varray>
    <i name="volume">   2621.80797419 </i>
    <varray name="rec_basis" >
     <v>       0.05767013       0.09920635       0.00000000 </v>
     <v>      -0.05767013       0.09920635       0.00000000 </v>
     <v>       0.00000000       0.00000000       0.03333333 </v>
    </varray>
   </crystal>
   <varray name="positions" >
    <v>       1.00000000       0.33333334       0.00000000 </v>
    <v>       0.00000000       0.00000000       0.00000000 </v>
    <v>       0.00000000       0.66666669       0.00000000 </v>
    <v>       0.33333334       0.33333334       0.00000000 </v>
    <v>       0.33333334       0.00000000       0.00000000 </v>
    <v>       0.66666669       0.33333334       0.00000000 </v>
    <v>       0.33333334       0.66666669       0.00000000 </v>
    <v>       0.66666669       0.00000000       0.00000000 </v>
    <v>       0.66666669       0.66666669       0.00000000 </v>
    <v>       0.11068511       0.22244981       0.95539999 </v>
    <v>       0.22244981       0.11068511       0.04460000 </v>
    <v>       0.11068511       0.55578315       0.95539999 </v>
    <v>       0.22244981       0.44401845       0.04460000 </v>
    <v>       0.11068511       0.88911647       0.95539999 </v>
    <v>       0.22244981       0.77735180       0.04460000 </v>
    <v>       0.44401845       0.22244981       0.95539999 </v>
    <v>       0.55578315       0.11068511       0.04460000 </v>
    <v>       0.44401845       0.55578315       0.95539999 </v>
    <v>       0.55578315       0.44401845       0.04460000 </v>
    <v>       0.44401845       0.88911647       0.95539999 </v>
    <v>       0.55578315       0.77735180       0.04460000 </v>
    <v>       0.77735180       0.22244981       0.95539999 </v>
    <v>       0.88911647       0.11068511       0.04460000 </v>
    <v>       0.77735180       0.55578315       0.95539999 </v>
    <v>       0.88911647       0.44401845       0.04460000 </v>
    <v>       0.77735180       0.88911647       0.95539999 </v>
    <v>       0.88911647       0.77735180       0.04460000 </v>
   </varray>
  </structure>
  <varray name="forces" >
   <v>      -0.00952647      -0.01225368       0.02781979 </v>
   <v>       0.22841625       0.37878570      -0.05663599 </v>
   <v>      -0.00951505      -0.01353905       0.02644177 </v>
   <v>       0.49876416      -0.02929138      -0.13698085 </v>
   <v>      -0.27833149       0.39420808      -0.13237695 </v>
   <v>      -0.23618130      -0.39449144       0.17381545 </v>
   <v>      -0.05078017      -0.07558333      -0.09177476 </v>
   <v>      -0.51528217       0.07619477       0.12011661 </v>
   <v>       0.34374998      -0.39842030       0.11422007 </v>
   <v>      -0.31606440      -0.66796762      -1.40576015 </v>
   <v>      -0.53499993      -0.70533618       2.16717149 </v>
   <v>      -0.23318978      -0.51534765      -1.43260660 </v>
   <v>      -0.61415985      -0.54733117       2.10521378 </v>
   <v>      -0.32608521      -0.66058752      -1.40909389 </v>
   <v>      -0.37047811      -0.69265651       2.11339946 </v>
   <v>       0.09609877      -0.03153142      -2.94196820 </v>
   <v>       0.06988188       0.03647124       2.92930054 </v>
   <v>       0.02867485       0.10621496      -2.91879517 </v>
   <v>      -0.18810587       0.19026250       2.92746588 </v>
   <v>       0.26060815      -0.03261852      -2.91560798 </v>
   <v>      -0.10908992       0.04347617       2.92649202 </v>
   <v>       0.62457843       0.56078743      -2.14827000 </v>
   <v>       0.23847157       0.52253296       1.41200128 </v>
   <v>       0.37352378       0.71133376      -2.15650000 </v>
   <v>       0.32543274       0.66871081       1.38126156 </v>
   <v>       0.46530973       0.56646124      -2.09358882 </v>
   <v>       0.23827944       0.52151615       1.41523969 </v>
  </varray>
  <varray name="stress" >
   <v>       7.27064726       0.13421650      -1.56551739 </v>
   <v>       0.13421668       4.50432512       0.00062332 </v>
   <v>      -1.56551740       0.00062329      30.31226122 </v>
  </varray>
  <energy>
   <i name="e_fr_energy">   -186.83067738 </i>
   <i name="e_wo_entrp">   -186.65775772 </i>
   <i name="e_0_energy">     -0.34583933 </i>
  </energy>
  <time name="totalsc">  780.24  782.42</time>
 </calculation>
 <calculation>
  <scstep>
   <time name="dav">   21.61   21.66</time>
   <time name="total">   22.15   22.20</time>
   <energy>
    <i name="alphaZ">     78.91661588 </i>
    <i name="ewald">  39376.57323603 </i>
    <i name="hartreedc"> -45333.83721339 </i>
    <i name="XCdc">   -239.07970398 </i>
    <i name="pawpsdc">   4192.05004249 </i>
    <i name="pawaedc">  -3610.05074736 </i>
    <i name="eentropy">     -0.28810302 </i>
    <i name="bandstr">  -1413.24907404 </i>
    <i name="atom">   6761.44252427 </i>
    <i name="e_fr_energy">   -187.52242310 </i>
    <i name="e_wo_entrp">   -187.23432007 </i>
    <i name="e_0_energy">   -187.37837159 </i>
   </energy>
  </scstep>
  <scstep>
   <time name="dav">   30.14   30.21</time>
   <time name="total">   30.67   30.76</time>
   <energy>
    <i name="e_fr_energy">   -189.50755187 </i>
    <i name="e_wo_entrp">   -189.18100476 </i>
    <i name="e_0_energy">   -189.34427831 </i>
   </energy>
  </scstep>
  <scstep>
   <time name="dav">   30.64   30.72</time>
   <time name="total">   31.20   31.28</time>
   <energy>
    <i name="e_fr_energy">   -189.34960825 </i>
    <i name="e_wo_entrp">   -189.07510089 </i>
    <i name="e_0_energy">   -189.21235457 </i>
   </energy>
  </scstep>
  <scstep>
   <time name="dav">   31.18   31.25</time>
   <time name="total">   31.72   31.80</time>
   <energy>
    <i name="e_fr_energy">   -188.77269862 </i>
    <i name="e_wo_entrp">   -188.48615233 </i>
    <i name="e_0_energy">   -188.62942548 </i>
   </energy>
  </scstep>
  <scstep>
   <time name="dav">   26.15   26.21</time>
   <time name="total">   26.70   26.77</time>
   <energy>
    <i name="e_fr_energy">   -188.73059705 </i>
    <i name="e_wo_entrp">   -188.44423299 </i>
    <i name="e_0_energy">   -188.58741502 </i>
   </energy>
  </scstep>
  <scstep>
   <time name="dav">   32.26   32.34</time>
   <time name="total">   32.80   32.89</time>
   <energy>
    <i name="e_fr_energy">   -188.77931409 </i>
    <i name="e_wo_entrp">   -188.49030332 </i>
    <i name="e_0_energy">   -188.63480870 </i>
   </energy>
  </scstep>
  <scstep>
   <time name="dav">   31.17   31.24</time>
   <time name="total">   31.71   31.79</time>
   <energy>
    <i name="e_fr_energy">   -188.71217492 </i>
    <i name="e_wo_entrp">   -188.42579115 </i>
    <i name="e_0_energy">   -188.56898304 </i>
   </energy>
  </scstep>
  <scstep>
   <time name="dav">   28.56   28.63</time>
   <time name="total">   29.11   29.18</time>
   <energy>
    <i name="e_fr_energy">   -188.68891097 </i>
    <i name="e_wo_entrp">   -188.40336241 </i>
    <i name="e_0_energy">   -188.54613669 </i>
   </energy>
  </scstep>
  <scstep>
   <time name="dav">   30.67   30.75</time>
   <time name="total">   31.21   31.30</time>
   <energy>
    <i name="e_fr_energy">   -188.68992341 </i>
    <i name="e_wo_entrp">   -188.40459550 </i>
    <i name="e_0_energy">   -188.54725946 </i>
   </energy>
  </scstep>
  <scstep>
   <time name="dav">   31.87   31.95</time>
   <time name="total">   32.41   32.50</time>
   <energy>
    <i name="e_fr_energy">   -188.68782940 </i>
    <i name="e_wo_entrp">   -188.40290325 </i>
    <i name="e_0_energy">   -188.54536633 </i>
   </energy>
  </scstep>
  <scstep>
   <time name="dav">   28.68   28.74</time>
   <time name="total">   29.22   29.30</time>
   <energy>
    <i name="e_fr_energy">   -188.68734567 </i>
    <i name="e_wo_entrp">   -188.40263985 </i>
    <i name="e_0_energy">   -188.54499276 </i>
   </energy>
  </scstep>
  <scstep>
   <time name="dav">   25.60   25.66</time>
   <time name="total">   25.63   25.70</time>
   <energy>
    <i name="alphaZ">     78.91661588 </i>
    <i name="ewald">  39376.57323603 </i>
    <i name="hartreedc"> -45344.81167210 </i>
    <i name="XCdc">   -237.98148251 </i>
    <i name="pawpsdc">   3950.91120863 </i>
    <i name="pawaedc">  -3365.42421410 </i>
    <i name="eentropy">     -0.28471261 </i>
    <i name="bandstr">  -1408.02893394 </i>
    <i name="atom">   6761.44252427 </i>
    <i name="e_fr_energy">   -188.68743044 </i>
    <i name="e_wo_entrp">   -188.40271783 </i>
    <i name="e_0_energy">   -188.54507413 </i>
   </energy>
  </scstep>
  <structure>
   <crystal>
    <varray name="basis" >
     <v>       8.85628825       5.10977933       0.00000000 </v>
     <v>      -8.85233239       5.10297481       0.00000000 </v>
     <v>       0.00000000       0.00000000      30.00000000 </v>
    </varray>
    <i name="volume">   2712.80642914 </i>
    <varray name="rec_basis" >
     <v>       0.05643206       0.09789492       0.00000000 </v>
     <v>      -0.05650730       0.09793867       0.00000000 </v>
     <v>       0.00000000       0.00000000       0.03333333 </v>
    </varray>
   </crystal>
   <varray name="positions" >
    <v>       0.99991485       0.33330120       0.00004474 </v>
    <v>       0.00244835       0.00117737      -0.00009108 </v>
    <v>      -0.00009127       0.66662836       0.00004252 </v>
    <v>       0.33458080       0.33180551      -0.00022028 </v>
    <v>       0.33444565       0.00266103      -0.00021287 </v>
    <v>       0.66412157       0.33210241       0.00027951 </v>
    <v>       0.33283032       0.66644622      -0.00014758 </v>
    <v>       0.66559776       0.00179826       0.00019316 </v>
    <v>       0.66571622       0.66380349       0.00018368 </v>
    <v>       0.10660889       0.22013227       0.95313940 </v>
    <v>       0.21758563       0.10879784       0.04808500 </v>
    <v>       0.10756990       0.55396548       0.95309623 </v>
    <v>       0.21812160       0.44310763       0.04798537 </v>
    <v>       0.10661633       0.88686213       0.95313404 </v>
    <v>       0.21810404       0.77506749       0.04799853 </v>
    <v>       0.44413491       0.22203154       0.95066904 </v>
    <v>       0.55615213       0.11066524       0.04931057 </v>
    <v>       0.44460657       0.55621172       0.95070631 </v>
    <v>       0.55617040       0.44545239       0.04930762 </v>
    <v>       0.44458740       0.88823530       0.95071143 </v>
    <v>       0.55568772       0.77786338       0.04930606 </v>
    <v>       0.78177339       0.22339605       0.95194538 </v>
    <v>       0.89228076       0.11252248       0.04687062 </v>
    <v>       0.78179543       0.55814838       0.95193215 </v>
    <v>       0.89322231       0.44631348       0.04682119 </v>
    <v>       0.78135743       0.89053297       0.95203331 </v>
    <v>       0.89227536       0.77918483       0.04687583 </v>
   </varray>
  </structure>
  <varray name="forces" >
   <v>      -0.00659819      -0.00076796       0.08964248 </v>
   <v>       0.18195585       0.32015075      -0.11077637 </v>
   <v>       0.00257802      -0.00460492       0.08909614 </v>
   <v>       0.55602746       0.20861372      -0.03715137 </v>
   <v>      -0.09221130       0.58679450      -0.03319832 </v>
   <v>      -0.32258760      -0.55889077       0.02205384 </v>
   <v>       0.07171976       0.13696772       0.08887204 </v>
   <v>      -0.53117338      -0.10733538      -0.07237210 </v>
   <v>       0.17843152      -0.51727709      -0.07829091 </v>
   <v>       0.00243679      -0.04303985       0.05920442 </v>
   <v>      -0.02980032      -0.07108766       0.11747339 </v>
   <v>       0.05127180       0.06161399       0.04817910 </v>
   <v>      -0.06407371       0.05204118      -0.17060462 </v>
   <v>      -0.01497317      -0.03419035       0.05439924 </v>
   <v>       0.09678647      -0.03849704      -0.17123841 </v>
   <v>       0.00076333       0.00919845      -0.40040766 </v>
   <v>       0.11311600      -0.00526937       0.28544744 </v>
   <v>      -0.06074401       0.09488017      -0.03333310 </v>
   <v>      -0.04853575       0.08754642       0.29324283 </v>
   <v>       0.09555598       0.00535883      -0.04081798 </v>
   <v>       0.01970116       0.00930134      -0.11422614 </v>
   <v>       0.06439023      -0.05004664       0.07232465 </v>
   <v>      -0.06083577      -0.06802900      -0.14139567 </v>
   <v>      -0.09635494       0.04139760       0.07191027 </v>
   <v>       0.00611536       0.03743480      -0.13758952 </v>
   <v>      -0.06336423      -0.08055852       0.38506400 </v>
   <v>      -0.04959737      -0.07170491      -0.13550766 </v>
  </varray>
  <varray name="stress" >
   <v>     -19.94410377      -0.04593189      -0.00215933 </v>
   <v>      -0.04593174     -19.56041893      -0.07977886 </v>
   <v>      -0.00215943      -0.07977862      -1.85182872 </v>
  </varray>
  <energy>
   <i name="e_fr_energy">   -188.68743044 </i>
   <i name="e_wo_entrp">   -188.54507413 </i>
   <i name="e_0_energy">     -0.28471261 </i>
  </energy>
  <time name="totalsc">  395.90  396.94</time>
 </calculation>
 <calculation>
  <scstep>
   <time name="dav">   23.64   23.70</time>
   <time name="total">   24.17   24.23</time>
   <energy>
    <i name="alphaZ">     82.34696062 </i>
    <i name="ewald">  41303.45823967 </i>
    <i name="hartreedc"> -47302.34609488 </i>
    <i name="XCdc">   -233.85078212 </i>
    <i name="pawpsdc">   3950.28899557 </i>
    <i name="pawaedc">  -3364.79477393 </i>
    <i name="eentropy">     -0.24031445 </i>
    <i name="bandstr">  -1386.93255283 </i>
    <i name="atom">   6761.44252427 </i>
    <i name="e_fr_energy">   -190.62779807 </i>
    <i name="e_wo_entrp">   -190.38748362 </i>
    <i name="e_0_energy">   -190.50764085 </i>
   </energy>
  </scstep>
  <scstep>
   <time name="dav">   28.77   28.84</time>
   <time name="total">   29.30   29.49</time>
   <energy>
    <i name="e_fr_energy">   -190.54653374 </i>
    <i name="e_wo_entrp">   -190.30880172 </i>
    <i name="e_0_energy">   -190.42766773 </i>
   </energy>
  </scstep>
  <scstep>
   <time name="dav">   30.43   30.51</time>
   <time name="total">   30.95   31.04</time>
   <energy>
    <i name="e_fr_energy">   -190.12353127 </i>
    <i name="e_wo_entrp">   -189.87114383 </i>
    <i name="e_0_energy">   -189.99733755 </i>
   </energy>
  </scstep>
  <scstep>
   <time name="dav">   30.90   30.97</time>
   <time name="total">   31.43   31.51</time>
   <energy>
    <i name="e_fr_energy">   -189.89568340 </i>
    <i name="e_wo_entrp">   -189.65650104 </i>
    <i name="e_0_energy">   -189.77609222 </i>
   </energy>
  </scstep>
  <scstep>
   <time name="dav">   29.24   29.31</time>
   <time name="total">   29.77   29.85</time>
   <energy>
    <i name="e_fr_energy">   -189.81230762 </i>
    <i name="e_wo_entrp">   -189.56908295 </i>
    <i name="e_0_energy">   -189.69069529 </i>
   </energy>
  </scstep>
  <scstep>
   <time name="dav">   29.41   29.48</time>
   <time name="total">   29.94   30.02</time>
   <energy>
    <i name="e_fr_energy">   -189.80028568 </i>
    <i name="e_wo_entrp">   -189.55698198 </i>
    <i name="e_0_energy">   -189.67863383 </i>
   </energy>
  </scstep>
  <scstep>
   <time name="dav">   28.78   28.85</time>
   <time name="total">   29.31   29.39</time>
   <energy>
    <i name="e_fr_energy">   -189.79399255 </i>
    <i name="e_wo_entrp">   -189.55090140 </i>
    <i name="e_0_energy">   -189.67244697 </i>
   </energy>
  </scstep>
  <scstep>
   <time name="dav">   28.62   28.69</time>
   <time name="total">   29.15   29.23</time>
   <energy>
    <i name="e_fr_energy">   -189.79366452 </i>
    <i name="e_wo_entrp">   -189.55052471 </i>
    <i name="e_0_energy">   -189.67209462 </i>
   </energy>
  </scstep>
  <scstep>
   <time name="dav">   26.92   26.99</time>
   <time name="total">   27.45   27.53</time>
   <energy>
    <i name="e_fr_energy">   -189.79417808 </i>
    <i name="e_wo_entrp">   -189.55095287 </i>
    <i name="e_0_energy">   -189.67256547 </i>
   </energy>
  </scstep>
  <scstep>
   <time name="dav">   26.92   26.98</time>
   <time name="total">   27.45   27.52</time>
   <energy>
    <i name="e_fr_energy">   -189.79399748 </i>
    <i name="e_wo_entrp">   -189.55065774 </i>
    <i name="e_0_energy">   -189.67232761 </i>
   </energy>
  </scstep>
  <scstep>
   <time name="dav">   23.28   23.33</time>
   <time name="total">   23.81   23.87</time>
   <energy>
    <i name="e_fr_energy">   -189.79381850 </i>
    <i name="e_wo_entrp">   -189.55048057 </i>
    <i name="e_0_energy">   -189.67214954 </i>
   </energy>
  </scstep>
  <scstep>
   <time name="dav">   17.29   17.33</time>
   <time name="total">   17.32   17.37</time>
   <energy>
    <i name="alphaZ">     82.34696062 </i>
    <i name="ewald">  41303.45823967 </i>
    <i name="hartreedc"> -47275.58866525 </i>
    <i name="XCdc">   -235.24710403 </i>
    <i name="pawpsdc">   4038.89385152 </i>
    <i name="pawaedc">  -3454.59963730 </i>
    <i name="eentropy">     -0.24332522 </i>
    <i name="bandstr">  -1410.25666617 </i>
    <i name="atom">   6761.44252427 </i>
    <i name="e_fr_energy">   -189.79382188 </i>
    <i name="e_wo_entrp">   -189.55049667 </i>
    <i name="e_0_energy">   -189.67215928 </i>
   </energy>
  </scstep>
  <structure>
   <crystal>
    <varray name="basis" >
     <v>       8.66780139       5.00282894       0.00000000 </v>
     <v>      -8.66442952       4.99703311       0.00000000 </v>
     <v>       0.00000000       0.00000000      30.00000000 </v>
    </varray>
    <i name="volume">   2599.79847844 </i>
    <varray name="rec_basis" >
     <v>       0.05766254       0.09998194       0.00000000 </v>
     <v>      -0.05772942       0.10002085       0.00000000 </v>
     <v>       0.00000000       0.00000000       0.03333333 </v>
    </varray>
   </crystal>
   <varray name="positions" >
    <v>       0.99990724       0.33330626       0.00009552 </v>
    <v>       0.00315546       0.00153549      -0.00015383 </v>
    <v>      -0.00009646       0.66661822       0.00009299 </v>
    <v>       0.33546108       0.33161878      -0.00024132 </v>
    <v>       0.33533342       0.00372622      -0.00023168 </v>
    <v>       0.66288242       0.33148199       0.00029200 </v>
    <v>       0.33312697       0.66660532      -0.00009724 </v>
    <v>       0.66490979       0.00212969       0.00015216 </v>
    <v>       0.66502679       0.66277121       0.00013933 </v>
    <v>       0.10653963       0.22005830       0.95317294 </v>
    <v>       0.21743879       0.10870814       0.04815155 </v>
    <v>       0.10772157       0.55401879       0.95312352 </v>
    <v>       0.21814673       0.44325577       0.04788873 </v>
    <v>       0.10654509       0.88681960       0.95316486 </v>
    <v>       0.21813282       0.77491047       0.04790153 </v>
    <v>       0.44415094       0.22204612       0.95044223 </v>
    <v>       0.55625184       0.11054784       0.04947227 </v>
    <v>       0.44470616       0.55642796       0.95068743 </v>
    <v>       0.55626950       0.44564470       0.04947373 </v>
    <v>       0.44468795       0.88815246       0.95068831 </v>
    <v>       0.55572209       0.77785994       0.04924135 </v>
    <v>       0.78175188       0.22325092       0.95198635 </v>
    <v>       0.89210925       0.11246767       0.04679053 </v>
    <v>       0.78177189       0.55830981       0.95197288 </v>
    <v>       0.89329045       0.44636991       0.04674325 </v>
    <v>       0.78116265       0.89045974       0.95225144 </v>
    <v>       0.89210851       0.77911311       0.04679907 </v>
   </varray>
  </structure>
  <varray name="forces" >
   <v>      -0.00583992       0.00236369       0.08540215 </v>
   <v>       0.17292802       0.30573015      -0.09710692 </v>
   <v>       0.00641122      -0.00508299       0.08521548 </v>
   <v>       0.56598979       0.29527880      -0.00020709 </v>
   <v>      -0.02498980       0.63922342       0.00010903 </v>
   <v>      -0.35667257      -0.61621909      -0.01324279 </v>
   <v>       0.11603696       0.20923127       0.10753865 </v>
   <v>      -0.54371641      -0.18300260      -0.09852138 </v>
   <v>       0.12071109      -0.57125628      -0.10036367 </v>
   <v>      -0.03025436      -0.08367639      -0.38328278 </v>
   <v>      -0.06336394      -0.12162256       0.60048031 </v>
   <v>      -0.02715562      -0.07166713      -0.41561476 </v>
   <v>      -0.03017866      -0.07873113       0.30506836 </v>
   <v>      -0.03411719      -0.08462579      -0.38704732 </v>
   <v>      -0.03589939      -0.07595415       0.30572066 </v>
   <v>       0.00649669       0.01893967      -0.97438121 </v>
   <v>       0.01184667      -0.01080067       0.86885543 </v>
   <v>      -0.02002754       0.01303305      -0.59851473 </v>
   <v>      -0.00679135      -0.00190656       0.87477569 </v>
   <v>       0.00712632      -0.00121399      -0.60582688 </v>
   <v>       0.02580684       0.02151435       0.44167239 </v>
   <v>       0.03669075       0.08970350      -0.42052118 </v>
   <v>       0.02131877       0.05289513       0.31001395 </v>
   <v>       0.04146072       0.08686824      -0.42037622 </v>
   <v>       0.02809011       0.07805856       0.29246894 </v>
   <v>       0.00354827       0.03364633      -0.07543895 </v>
   <v>       0.01454452       0.05927319       0.31312485 </v>
  </varray>
  <varray name="stress" >
   <v>     -10.16422060      -0.01640872      -0.02838927 </v>
   <v>      -0.01640860      -9.84532863      -0.09552776 </v>
   <v>      -0.02838937      -0.09552765       6.48186795 </v>
  </varray>
  <energy>
   <i name="e_fr_energy">   -189.79382188 </i>
   <i name="e_wo_entrp">   -189.67215928 </i>
   <i name="e_0_energy">     -0.24332522 </i>
  </energy>
  <time name="totalsc">  371.73  372.83</time>
 </calculation>
 <calculation>
  <scstep>
   <time name="dav">   21.63   21.68</time>
   <time name="total">   22.14   22.20</time>
   <energy>
    <i name="alphaZ">     85.82043761 </i>
    <i name="ewald">  42834.33662154 </i>
    <i name="hartreedc"> -48850.80017085 </i>
    <i name="XCdc">   -232.96124108 </i>
    <i name="pawpsdc">   4038.91606801 </i>
    <i name="pawaedc">  -3454.61944510 </i>
    <i name="eentropy">     -0.20905832 </i>
    <i name="bandstr">  -1373.33359741 </i>
    <i name="atom">   6761.44252427 </i>
    <i name="e_fr_energy">   -191.40786134 </i>
    <i name="e_wo_entrp">   -191.19880302 </i>
    <i name="e_0_energy">   -191.30333218 </i>
   </energy>
  </scstep>
  <scstep>
   <time name="dav">   31.34   31.42</time>
   <time name="total">   31.85   31.94</time>
   <energy>
    <i name="e_fr_energy">   -191.15924250 </i>
    <i name="e_wo_entrp">   -190.95028479 </i>
    <i name="e_0_energy">   -191.05476365 </i>
   </energy>
  </scstep>
  <scstep>
   <time name="dav">   29.94   30.01</time>
   <time name="total">   30.45   30.53</time>
   <energy>
    <i name="e_fr_energy">   -191.37526488 </i>
    <i name="e_wo_entrp">   -191.14764124 </i>
    <i name="e_0_energy">   -191.26145306 </i>
   </energy>
  </scstep>
  <scstep>
   <time name="dav">   29.99   30.06</time>
   <time name="total">   30.51   30.59</time>
   <energy>
    <i name="e_fr_energy">   -190.98464322 </i>
    <i name="e_wo_entrp">   -190.77658251 </i>
    <i name="e_0_energy">   -190.88061287 </i>
   </energy>
  </scstep>
  <scstep>
   <time name="dav">   29.92   29.99</time>
   <time name="total">   30.43   30.51</time>
   <energy>
    <i name="e_fr_energy">   -190.85867122 </i>
    <i name="e_wo_entrp">   -190.64461131 </i>
    <i name="e_0_energy">   -190.75164126 </i>
   </energy>
  </scstep>
  <scstep>
   <time name="dav">   29.85   29.92</time>
   <time name="total">   30.36   30.44</time>
   <energy>
    <i name="e_fr_energy">   -190.85998559 </i>
    <i name="e_wo_entrp">   -190.64396566 </i>
    <i name="e_0_energy">   -190.75197563 </i>
   </energy>
  </scstep>
  <scstep>
   <time name="dav">   28.94   29.01</time>
   <time name="total">   29.45   29.53</time>
   <energy>
    <i name="e_fr_energy">   -190.83854190 </i>
    <i name="e_wo_entrp">   -190.62262681 </i>
    <i name="e_0_energy">   -190.73058436 </i>
   </energy>
  </scstep>
  <scstep>
   <time name="dav">   28.67   28.74</time>
   <time name="total">   29.18   29.26</time>
   <energy>
    <i name="e_fr_energy">   -190.83470850 </i>
    <i name="e_wo_entrp">   -190.61926969 </i>
    <i name="e_0_energy">   -190.72698910 </i>
   </energy>
  </scstep>
  <scstep>
   <time name="dav">   31.14   31.21</time>
   <time name="total">   31.65   31.74</time>
   <energy>
    <i name="e_fr_energy">   -190.83466779 </i>
    <i name="e_wo_entrp">   -190.61917133 </i>
    <i name="e_0_energy">   -190.72691956 </i>
   </energy>
  </scstep>
  <scstep>
   <time name="dav">   27.61   27.67</time>
   <time name="total">   28.12   28.19</time>
   <energy>
    <i name="e_fr_energy">   -190.83446253 </i>
    <i name="e_wo_entrp">   -190.61886141 </i>
    <i name="e_0_energy">   -190.72666197 </i>
   </energy>
  </scstep>
  <scstep>
   <time name="dav">   19.74   19.79</time>
   <time name="total">   19.78   19.84</time>
   <energy>
    <i name="alphaZ">     85.82043761 </i>
    <i name="ewald">  42834.33662154 </i>
    <i name="hartreedc"> -48822.01028688 </i>
    <i name="XCdc">   -234.28616802 </i>
    <i name="pawpsdc">   4064.52236964 </i>
    <i name="pawaedc">  -3480.42312131 </i>
    <i name="eentropy">     -0.21569652 </i>
    <i name="bandstr">  -1400.02114097 </i>
    <i name="atom">   6761.44252427 </i>
    <i name="e_fr_energy">   -190.83446065 </i>
    <i name="e_wo_entrp">   -190.61876413 </i>
    <i name="e_0_energy">   -190.72661239 </i>
   </energy>
  </scstep>
  <structure>
   <crystal>
    <varray name="basis" >
     <v>       8.48603183       4.90305384       0.00000000 </v>
     <v>      -8.48282966       4.89754510       0.00000000 </v>
     <v>       0.00000000       0.00000000      30.00000000 </v>
    </varray>
    <i name="volume">   2494.57482278 </i>
    <varray name="rec_basis" >
     <v>       0.05889835       0.10201534       0.00000000 </v>
     <v>      -0.05896460       0.10205385       0.00000000 </v>
     <v>       0.00000000       0.00000000       0.03333333 </v>
    </varray>
   </crystal>
   <varray name="positions" >
    <v>       0.99990983       0.33334886       0.00026858 </v>
    <v>       0.00564395       0.00280150      -0.00034312 </v>
    <v>      -0.00010082       0.66655655       0.00026598 </v>
    <v>       0.33958153       0.33162325      -0.00021047 </v>
    <v>       0.33946986       0.00785185      -0.00020325 </v>
    <v>       0.65754762       0.32881974       0.00023473 </v>
    <v>       0.33509827       0.66761192       0.00014101 </v>
    <v>       0.66159596       0.00277863      -0.00007377 </v>
    <v>       0.66167092       0.65870765      -0.00008697 </v>
    <v>       0.10575892       0.21958966       0.95200547 </v>
    <v>       0.21627526       0.10809824       0.04980260 </v>
    <v>       0.10673127       0.55344931       0.95187114 </v>
    <v>       0.21726856       0.44249802       0.04892250 </v>
    <v>       0.10573955       0.88631516       0.95199048 </v>
    <v>       0.21724463       0.77466200       0.04893775 </v>
    <v>       0.44432535       0.22215720       0.94794073 </v>
    <v>       0.55606810       0.11056902       0.05176347 </v>
    <v>       0.44457028       0.55631987       0.94897086 </v>
    <v>       0.55607047       0.44537487       0.05177560 </v>
    <v>       0.44456298       0.88822968       0.94895677 </v>
    <v>       0.55598899       0.77792298       0.05062562 </v>
    <v>       0.78275342       0.22406726       0.95069922 </v>
    <v>       0.89293563       0.11290465       0.04781399 </v>
    <v>       0.78277573       0.55861907       0.95068652 </v>
    <v>       0.89401280       0.44682656       0.04771235 </v>
    <v>       0.78176588       0.89084560       0.95170550 </v>
    <v>       0.89294953       0.77966536       0.04782662 </v>
   </varray>
  </structure>
  <varray name="forces" >
   <v>       0.00032332      -0.00434022       0.05336330 </v>
   <v>       0.19114648       0.33343042      -0.05824931 </v>
   <v>      -0.00137802      -0.00172464       0.05361982 </v>
   <v>       0.51750299       0.35166113       0.02967422 </v>
   <v>       0.05160888       0.62244644       0.02488536 </v>
   <v>      -0.34721807      -0.59851001      -0.04017326 </v>
   <v>       0.14350338       0.25987328       0.07447617 </v>
   <v>      -0.61944184      -0.20150295      -0.06268961 </v>
   <v>       0.14005176      -0.64054067      -0.05609460 </v>
   <v>       0.03853177       0.05310026      -0.29550116 </v>
   <v>       0.00982592       0.01930315       0.40598876 </v>
   <v>       0.00712817      -0.00561069      -0.26751412 </v>
   <v>       0.07590962      -0.02121785       0.16124795 </v>
   <v>       0.04316380       0.05054009      -0.29340980 </v>
   <v>      -0.05913977       0.05604144       0.16367027 </v>
   <v>      -0.00016820      -0.00543971      -0.76478417 </v>
   <v>      -0.05809210       0.01749926       0.67188998 </v>
   <v>       0.01083844      -0.09342611      -0.46137644 </v>
   <v>       0.04051946      -0.03911655       0.67367825 </v>
   <v>      -0.08622153      -0.03751942      -0.46130315 </v>
   <v>       0.03814848       0.06560998       0.29241514 </v>
   <v>      -0.07461248       0.02167175      -0.25468659 </v>
   <v>      -0.01939515      -0.02215701       0.19214322 </v>
   <v>       0.05732531      -0.05330874      -0.25893962 </v>
   <v>      -0.05290488      -0.07150901       0.21202485 </v>
   <v>      -0.02058827      -0.03643096       0.07516164 </v>
   <v>      -0.02636746      -0.01882266       0.19048290 </v>
  </varray>
  <varray name="stress" >
   <v>      -5.85910366       0.17815901      -0.02056853 </v>
   <v>       0.17815892      -5.67941042       0.09689043 </v>
   <v>      -0.02056844       0.09689045       4.56144427 </v>
  </varray>
  <energy>
   <i name="e_fr_energy">   -190.83446065 </i>
   <i name="e_wo_entrp">   -190.72661239 </i>
   <i name="e_0_energy">     -0.21569652 </i>
  </energy>
  <time name="totalsc">  355.51  356.45</time>
 </calculation>
 <calculation>
  <scstep>
   <time name="dav">   21.62   21.67</time>
   <time name="total">   22.13   22.18</time>
   <energy>
    <i name="alphaZ">     90.20615309 </i>
    <i name="ewald">  44679.26627162 </i>
    <i name="hartreedc"> -50722.41848957 </i>
    <i name="XCdc">   -231.82899216 </i>
    <i name="pawpsdc">   4064.61743171 </i>
    <i name="pawaedc">  -3480.51477057 </i>
    <i name="eentropy">     -0.20452313 </i>
    <i name="bandstr">  -1352.83028335 </i>
    <i name="atom">   6761.44252427 </i>
    <i name="e_fr_energy">   -192.26467810 </i>
    <i name="e_wo_entrp">   -192.06015497 </i>
    <i name="e_0_energy">   -192.16241653 </i>
   </energy>
  </scstep>
  <scstep>
   <time name="dav">   25.37   25.43</time>
   <time name="total">   25.87   25.94</time>
   <energy>
    <i name="e_fr_energy">   -191.97281910 </i>
    <i name="e_wo_entrp">   -191.75217705 </i>
    <i name="e_0_energy">   -191.86249808 </i>
   </energy>
  </scstep>
  <scstep>
   <time name="dav">   27.15   27.22</time>
   <time name="total">   27.67   27.74</time>
   <energy>
    <i name="e_fr_energy">   -191.84796219 </i>
    <i name="e_wo_entrp">   -191.64979145 </i>
    <i name="e_0_energy">   -191.74887682 </i>
   </energy>
  </scstep>
  <scstep>
   <time name="dav">   29.81   29.88</time>
   <time name="total">   30.31   30.39</time>
   <energy>
    <i name="e_fr_energy">   -191.86402045 </i>
    <i name="e_wo_entrp">   -191.64081523 </i>
    <i name="e_0_energy">   -191.75241784 </i>
   </energy>
  </scstep>
  <scstep>
   <time name="dav">   30.16   30.23</time>
   <time name="total">   30.67   30.75</time>
   <energy>
    <i name="e_fr_energy">   -191.61255204 </i>
    <i name="e_wo_entrp">   -191.40193399 </i>
    <i name="e_0_energy">   -191.50724301 </i>
   </energy>
  </scstep>
  <scstep>
   <time name="dav">   29.97   30.04</time>
   <time name="total">   30.48   30.56</time>
   <energy>
    <i name="e_fr_energy">   -191.61098615 </i>
    <i name="e_wo_entrp">   -191.39580755 </i>
    <i name="e_0_energy">   -191.50339685 </i>
   </energy>
  </scstep>
  <scstep>
   <time name="dav">   30.03   30.10</time>
   <time name="total">   30.53   30.62</time>
   <energy>
    <i name="e_fr_energy">   -191.57550726 </i>
    <i name="e_wo_entrp">   -191.35815756 </i>
    <i name="e_0_energy">   -191.46683241 </i>
   </energy>
  </scstep>
  <scstep>
   <time name="dav">   28.62   28.69</time>
   <time name="total">   29.12   29.20</time>
   <energy>
    <i name="e_fr_energy">   -191.57170533 </i>
    <i name="e_wo_entrp">   -191.35592899 </i>
    <i name="e_0_energy">   -191.46381716 </i>
   </energy>
  </scstep>
  <scstep>
   <time name="dav">   29.42   29.49</time>
   <time name="total">   29.93   30.01</time>
   <energy>
    <i name="e_fr_energy">   -191.57022657 </i>
    <i name="e_wo_entrp">   -191.35449066 </i>
    <i name="e_0_energy">   -191.46235862 </i>
   </energy>
  </scstep>
  <scstep>
   <time name="dav">   28.69   28.76</time>
   <time name="total">   29.20   29.27</time>
   <energy>
    <i name="e_fr_energy">   -191.57006565 </i>
    <i name="e_wo_entrp">   -191.35425804 </i>
    <i name="e_0_energy">   -191.46216184 </i>
   </energy>
  </scstep>
  <scstep>
   <time name="dav">   24.80   24.85</time>
   <time name="total">   24.83   24.90</time>
   <energy>
    <i name="alphaZ">     90.20615309 </i>
    <i name="ewald">  44679.26627162 </i>
    <i name="hartreedc"> -50688.55102056 </i>
    <i name="XCdc">   -233.33937553 </i>
    <i name="pawpsdc">   4089.02916171 </i>
    <i name="pawaedc">  -3505.07528933 </i>
    <i name="eentropy">     -0.21597483 </i>
    <i name="bandstr">  -1384.33246963 </i>
    <i name="atom">   6761.44252427 </i>
    <i name="e_fr_energy">   -191.57001920 </i>
    <i name="e_wo_entrp">   -191.35404437 </i>
    <i name="e_0_energy">   -191.46203179 </i>
   </energy>
  </scstep>
  <structure>
   <crystal>
    <varray name="basis" >
     <v>       8.27753918       4.79486577       0.00000000 </v>
     <v>      -8.26342884       4.77046211       0.00000000 </v>
     <v>       0.00000000       0.00000000      30.00000000 </v>
    </varray>
    <i name="volume">   2373.29157278 </i>
    <varray name="rec_basis" >
     <v>       0.06030185       0.10445529       0.00000000 </v>
     <v>      -0.06061032       0.10463366       0.00000000 </v>
     <v>       0.00000000       0.00000000       0.03333333 </v>
    </varray>
   </crystal>
   <varray name="positions" >
    <v>       0.99987415       0.33331796       0.00049675 </v>
    <v>       0.01101010       0.00550420      -0.00058531 </v>
    <v>      -0.00012503       0.66652402       0.00049530 </v>
    <v>       0.34784565       0.33236882      -0.00007034 </v>
    <v>       0.34775442       0.01532478      -0.00008328 </v>
    <v>       0.64740511       0.32376744       0.00005232 </v>
    <v>       0.33950926       0.66987853       0.00047755 </v>
    <v>       0.65454534       0.00447120      -0.00037171 </v>
    <v>       0.65459383       0.64985838      -0.00035883 </v>
    <v>       0.10622094       0.21974463       0.95032825 </v>
    <v>       0.21607292       0.10801023       0.05202289 </v>
    <v>       0.10604878       0.55299477       0.95025307 </v>
    <v>       0.21702471       0.44126139       0.05012171 </v>
    <v>       0.10619166       0.88636499       0.95031957 </v>
    <v>       0.21698440       0.77564746       0.05014703 </v>
    <v>       0.44434229       0.22214435       0.94417586 </v>
    <v>       0.55570393       0.11123935       0.05515645 </v>
    <v>       0.44347130       0.55498866       0.94647676 </v>
    <v>       0.55570224       0.44437906       0.05517615 </v>
    <v>       0.44346741       0.88848168       0.94645915 </v>
    <v>       0.55703239       0.77842514       0.05243601 </v>
    <v>       0.78307142       0.22532859       0.94909449 </v>
    <v>       0.89317880       0.11306998       0.04909967 </v>
    <v>       0.78310963       0.55770169       0.94906757 </v>
    <v>       0.89323584       0.44657421       0.04903681 </v>
    <v>       0.78175446       0.89085667       0.95147060 </v>
    <v>       0.89318850       0.77998626       0.04910542 </v>
   </varray>
  </structure>
  <varray name="forces" >
   <v>       0.01657192      -0.03797531       0.06006446 </v>
   <v>       0.25644873       0.44333060      -0.07438862 </v>
   <v>      -0.03776260      -0.00584101       0.05687378 </v>
   <v>      -0.01015167       0.09376182      -0.11308348 </v>
   <v>       0.09868028       0.03529238      -0.10420721 </v>
   <v>       0.00454620       0.00873077       0.06019482 </v>
   <v>       0.13267783       0.23855291      -0.04151829 </v>
   <v>      -0.47807731      -0.11356055       0.09266121 </v>
   <v>       0.13612440      -0.46331272       0.08055373 </v>
   <v>       0.09845534       0.19310584      -0.00850612 </v>
   <v>       0.10167252       0.17387581       0.09513058 </v>
   <v>       0.04735560       0.08264791       0.05138653 </v>
   <v>       0.17778232       0.10022335      -0.10473728 </v>
   <v>       0.11519100       0.18187194      -0.00667421 </v>
   <v>      -0.00699024       0.20638376      -0.10211973 </v>
   <v>      -0.04430725      -0.07583350      -0.23829841 </v>
   <v>      -0.07611408       0.08396092       0.26030228 </v>
   <v>       0.01398607      -0.17439748      -0.18018057 </v>
   <v>       0.11129386      -0.02558686       0.26664278 </v>
   <v>      -0.15573133      -0.07732001      -0.19007990 </v>
   <v>       0.07439674       0.13475111       0.02029579 </v>
   <v>      -0.22240952      -0.10635801      -0.00269597 </v>
   <v>      -0.05627444      -0.14295949      -0.12160459 </v>
   <v>       0.01773024      -0.24673019       0.00094702 </v>
   <v>      -0.12049241      -0.20972634      -0.05857463 </v>
   <v>      -0.09749047      -0.17723762       0.42357907 </v>
   <v>      -0.09711176      -0.11965003      -0.12196301 </v>
  </varray>
  <varray name="stress" >
   <v>       0.13807638       0.60257683       0.37912950 </v>
   <v>       0.60257705       0.87904176       0.67955614 </v>
   <v>       0.37912975       0.67955617      -0.73773943 </v>
  </varray>
  <energy>
   <i name="e_fr_energy">   -191.57001920 </i>
   <i name="e_wo_entrp">   -191.46203179 </i>
   <i name="e_0_energy">     -0.21597483 </i>
  </energy>
  <time name="totalsc">  352.19  353.12</time>
 </calculation>
 <calculation>
  <scstep>
   <time name="dav">   21.63   21.68</time>
   <time name="total">   22.14   22.19</time>
   <energy>
    <i name="alphaZ">     89.88586958 </i>
    <i name="ewald">  44519.42317627 </i>
    <i name="hartreedc"> -50525.83516448 </i>
    <i name="XCdc">   -233.62645862 </i>
    <i name="pawpsdc">   4089.27885849 </i>
    <i name="pawaedc">  -3505.32130144 </i>
    <i name="eentropy">     -0.21670249 </i>
    <i name="bandstr">  -1386.67621102 </i>
    <i name="atom">   6761.44252427 </i>
    <i name="e_fr_energy">   -191.64540945 </i>
    <i name="e_wo_entrp">   -191.42870696 </i>
    <i name="e_0_energy">   -191.53705821 </i>
   </energy>
  </scstep>
  <scstep>
   <time name="dav">   30.52   30.60</time>
   <time name="total">   31.03   31.11</time>
   <energy>
    <i name="e_fr_energy">   -191.72287619 </i>
    <i name="e_wo_entrp">   -191.49530668 </i>
    <i name="e_0_energy">   -191.60909143 </i>
   </energy>
  </scstep>
  <scstep>
   <time name="dav">   30.50   30.57</time>
   <time name="total">   31.00   31.09</time>
   <energy>
    <i name="e_fr_energy">   -191.65650841 </i>
    <i name="e_wo_entrp">   -191.43901067 </i>
    <i name="e_0_energy">   -191.54775954 </i>
   </energy>
  </scstep>
  <scstep>
   <time name="dav">   26.79   26.85</time>
   <time name="total">   27.30   27.37</time>
   <energy>
    <i name="e_fr_energy">   -191.66120024 </i>
    <i name="e_wo_entrp">   -191.44248452 </i>
    <i name="e_0_energy">   -191.55184238 </i>
   </energy>
  </scstep>
  <scstep>
   <time name="dav">   26.95   27.02</time>
   <time name="total">   27.46   27.53</time>
   <energy>
    <i name="e_fr_energy">   -191.65218900 </i>
    <i name="e_wo_entrp">   -191.43233666 </i>
    <i name="e_0_energy">   -191.54226283 </i>
   </energy>
  </scstep>
  <scstep>
   <time name="dav">   27.98   28.04</time>
   <time name="total">   28.48   28.56</time>
   <energy>
    <i name="e_fr_energy">   -191.65176699 </i>
    <i name="e_wo_entrp">   -191.43333975 </i>
    <i name="e_0_energy">   -191.54255337 </i>
   </energy>
  </scstep>
  <scstep>
   <time name="dav">   27.49   27.55</time>
   <time name="total">   28.00   28.07</time>
   <energy>
    <i name="e_fr_energy">   -191.65155465 </i>
    <i name="e_wo_entrp">   -191.43266516 </i>
    <i name="e_0_energy">   -191.54210990 </i>
   </energy>
  </scstep>
  <scstep>
   <time name="dav">   22.70   22.75</time>
   <time name="total">   23.20   23.27</time>
   <energy>
    <i name="e_fr_energy">   -191.65145272 </i>
    <i name="e_wo_entrp">   -191.43252987 </i>
    <i name="e_0_energy">   -191.54199130 </i>
   </energy>
  </scstep>
  <scstep>
   <time name="dav">   17.33   17.38</time>
   <time name="total">   17.37   17.42</time>
   <energy>
    <i name="alphaZ">     89.88586958 </i>
    <i name="ewald">  44519.42317627 </i>
    <i name="hartreedc"> -50529.46558374 </i>
    <i name="XCdc">   -233.50115447 </i>
    <i name="pawpsdc">   4084.29886611 </i>
    <i name="pawaedc">  -3500.27439302 </i>
    <i name="eentropy">     -0.21892012 </i>
    <i name="bandstr">  -1383.24180358 </i>
    <i name="atom">   6761.44252427 </i>
    <i name="e_fr_energy">   -191.65141871 </i>
    <i name="e_wo_entrp">   -191.43249859 </i>
    <i name="e_0_energy">   -191.54195865 </i>
   </energy>
  </scstep>
  <structure>
   <crystal>
    <varray name="basis" >
     <v>       8.29183989       4.81984210       0.00000000 </v>
     <v>      -8.26372083       4.77116969       0.00000000 </v>
     <v>       0.00000000       0.00000000      30.00000000 </v>
    </varray>
    <i name="volume">   2381.74814285 </i>
    <varray name="rec_basis" >
     <v>       0.06009665       0.10408809       0.00000000 </v>
     <v>      -0.06070972       0.10444228       0.00000000 </v>
     <v>       0.00000000       0.00000000       0.03333333 </v>
    </varray>
   </crystal>
   <varray name="positions" >
    <v>       0.99974027       0.33309238       0.00057934 </v>
    <v>       0.01362912       0.00681097      -0.00068922 </v>
    <v>      -0.00025546       0.66660185       0.00057301 </v>
    <v>       0.34796600       0.33281383      -0.00024695 </v>
    <v>       0.34789477       0.01495396      -0.00024572 </v>
    <v>       0.64782286       0.32397766       0.00015035 </v>
    <v>       0.34084468       0.67056517       0.00040199 </v>
    <v>       0.65294920       0.00519349      -0.00021989 </v>
    <v>       0.65302197       0.64759237      -0.00022624 </v>
    <v>       0.10740131       0.22039108       0.95038581 </v>
    <v>       0.21719528       0.10856571       0.05207507 </v>
    <v>       0.10661011       0.55328099       0.95040046 </v>
    <v>       0.21800786       0.44130197       0.04990808 </v>
    <v>       0.10736519       0.88691663       0.95037972 </v>
    <v>       0.21796589       0.77661573       0.04993700 </v>
    <v>       0.44385860       0.22190516       0.94396365 </v>
    <v>       0.55591050       0.11182331       0.05541501 </v>
    <v>       0.44272152       0.55417066       0.94630665 </v>
    <v>       0.55590270       0.44399142       0.05544404 </v>
    <v>       0.44271313       0.88853172       0.94627427 </v>
    <v>       0.55783952       0.77884384       0.05238822 </v>
    <v>       0.78193295       0.22538018       0.94916043 </v>
    <v>       0.89232263       0.11253269       0.04885835 </v>
    <v>       0.78196232       0.55650923       0.94913947 </v>
    <v>       0.89192701       0.44591224       0.04889051 </v>
    <v>       0.78063339       0.89027506       0.95213269 </v>
    <v>       0.89233111       0.77966516       0.04886381 </v>
   </varray>
  </structure>
  <varray name="forces" >
   <v>      -0.00074016      -0.07343031       0.07189728 </v>
   <v>       0.29387639       0.50683069      -0.03681933 </v>
   <v>      -0.06048725      -0.03717602       0.07030437 </v>
   <v>       0.11327923       0.14280819       0.00652993 </v>
   <v>       0.07659840       0.16397113       0.00194182 </v>
   <v>      -0.08064404      -0.13904479      -0.04845387 </v>
   <v>       0.14402072       0.26678953       0.00100792 </v>
   <v>      -0.53590887      -0.11440388      -0.01092082 </v>
   <v>       0.16864138      -0.51779137      -0.00608185 </v>
   <v>       0.04421557       0.12256013      -0.04368854 </v>
   <v>       0.05563101       0.09616013       0.05754987 </v>
   <v>       0.03431030       0.05817180       0.08249470 </v>
   <v>       0.07153651       0.06302615      -0.12538294 </v>
   <v>       0.08353361       0.09925480      -0.04235262 </v>
   <v>       0.01488396       0.09424452      -0.11982559 </v>
   <v>      -0.00424767      -0.01209540      -0.12749426 </v>
   <v>      -0.09377785       0.00268554       0.21783469 </v>
   <v>       0.00721399      -0.07361281      -0.15189303 </v>
   <v>       0.04573578      -0.07958516       0.21212177 </v>
   <v>      -0.06394641      -0.02908677      -0.15516006 </v>
   <v>       0.04060391       0.07383437      -0.00963450 </v>
   <v>      -0.12293589      -0.07497849       0.00277151 </v>
   <v>      -0.02936568      -0.10816985      -0.14402883 </v>
   <v>      -0.00160061      -0.14520035       0.00264834 </v>
   <v>      -0.05862646      -0.09953725      -0.04022829 </v>
   <v>      -0.06090295      -0.10805930       0.47997075 </v>
   <v>      -0.08089692      -0.07816523      -0.14510842 </v>
  </varray>
  <varray name="stress" >
   <v>      -0.14938715      -0.01026991       0.05803985 </v>
   <v>      -0.01026970      -0.16470276       0.14369984 </v>
   <v>       0.05803970       0.14369984      -1.38232611 </v>
  </varray>
  <energy>
   <i name="e_fr_energy">   -191.65141871 </i>
   <i name="e_wo_entrp">   -191.54195865 </i>
   <i name="e_0_energy">     -0.21892012 </i>
  </energy>
  <time name="totalsc">  277.67  278.39</time>
 </calculation>
 <calculation>
  <scstep>
   <time name="dav">   21.65   21.70</time>
   <time name="total">   22.16   22.21</time>
   <energy>
    <i name="alphaZ">     89.98628674 </i>
    <i name="ewald">  44567.44254428 </i>
    <i name="hartreedc"> -50578.36228018 </i>
    <i name="XCdc">   -233.42610824 </i>
    <i name="pawpsdc">   4083.85779632 </i>
    <i name="pawaedc">  -3499.82935657 </i>
    <i name="eentropy">     -0.21747288 </i>
    <i name="bandstr">  -1382.62286042 </i>
    <i name="atom">   6761.44252427 </i>
    <i name="e_fr_energy">   -191.72892668 </i>
    <i name="e_wo_entrp">   -191.51145380 </i>
    <i name="e_0_energy">   -191.62019024 </i>
   </energy>
  </scstep>
  <scstep>
   <time name="dav">   31.99   32.07</time>
   <time name="total">   32.50   32.59</time>
   <energy>
    <i name="e_fr_energy">   -191.78506212 </i>
    <i name="e_wo_entrp">   -191.55552189 </i>
    <i name="e_0_energy">   -191.67029200 </i>
   </energy>
  </scstep>
  <scstep>
   <time name="dav">   30.46   30.53</time>
   <time name="total">   30.96   31.05</time>
   <energy>
    <i name="e_fr_energy">   -191.73714426 </i>
    <i name="e_wo_entrp">   -191.51907609 </i>
    <i name="e_0_energy">   -191.62811017 </i>
   </energy>
  </scstep>
  <scstep>
   <time name="dav">   26.35   26.41</time>
   <time name="total">   26.86   26.93</time>
   <energy>
    <i name="e_fr_energy">   -191.73871136 </i>
    <i name="e_wo_entrp">   -191.52014620 </i>
    <i name="e_0_energy">   -191.62942878 </i>
   </energy>
  </scstep>
  <scstep>
   <time name="dav">   27.57   27.64</time>
   <time name="total">   28.08   28.16</time>
   <energy>
    <i name="e_fr_energy">   -191.73389856 </i>
    <i name="e_wo_entrp">   -191.51383060 </i>
    <i name="e_0_energy">   -191.62386458 </i>
   </energy>
  </scstep>
  <scstep>
   <time name="dav">   26.58   26.64</time>
   <time name="total">   27.09   27.16</time>
   <energy>
    <i name="e_fr_energy">   -191.73367783 </i>
    <i name="e_wo_entrp">   -191.51415625 </i>
    <i name="e_0_energy">   -191.62391704 </i>
   </energy>
  </scstep>
  <scstep>
   <time name="dav">   27.45   27.51</time>
   <time name="total">   27.96   28.03</time>
   <energy>
    <i name="e_fr_energy">   -191.73356509 </i>
    <i name="e_wo_entrp">   -191.51357810 </i>
    <i name="e_0_energy">   -191.62357160 </i>
   </energy>
  </scstep>
  <scstep>
   <time name="dav">   22.46   22.51</time>
   <time name="total">   22.50   22.55</time>
   <energy>
    <i name="alphaZ">     89.98628674 </i>
    <i name="ewald">  44567.44254428 </i>
    <i name="hartreedc"> -50578.21455051 </i>
    <i name="XCdc">   -233.44326480 </i>
    <i name="pawpsdc">   4087.07172749 </i>
    <i name="pawaedc">  -3503.08278810 </i>
    <i name="eentropy">     -0.21996550 </i>
    <i name="bandstr">  -1382.71598701 </i>
    <i name="atom">   6761.44252427 </i>
    <i name="e_fr_energy">   -191.73347315 </i>
    <i name="e_wo_entrp">   -191.51350765 </i>
    <i name="e_0_energy">   -191.62349040 </i>
   </energy>
  </scstep>
  <structure>
   <crystal>
    <varray name="basis" >
     <v>       8.28723720       4.81745688       0.00000000 </v>
     <v>      -8.25885811       4.76833432       0.00000000 </v>
[...]
      <set comment="kpoint 31">
       <r>  -17.5062    1.0000 </r>
       <r>  -17.2755    1.0000 </r>
       <r>  -16.8973    1.0000 </r>
       <r>  -16.5446    1.0000 </r>
       <r>  -16.5280    1.0000 </r>
       <r>  -16.4407    1.0000 </r>
       <r>  -16.2285    1.0000 </r>
       <r>  -16.1761    1.0000 </r>
       <r>  -16.1307    1.0000 </r>
       <r>  -16.0844    1.0000 </r>
       <r>  -15.8642    1.0000 </r>
       <r>  -15.8392    1.0000 </r>
       <r>  -15.7986    1.0000 </r>
       <r>  -15.7327    1.0000 </r>
       <r>  -15.6153    1.0000 </r>
       <r>  -15.5074    1.0000 </r>
       <r>  -15.4649    1.0000 </r>
       <r>  -15.4004    1.0000 </r>
       <r>   -9.7793    1.0000 </r>
       <r>   -9.5044    1.0000 </r>
       <r>   -9.2612    1.0000 </r>
       <r>   -8.9128    1.0000 </r>
       <r>   -8.8058    1.0000 </r>
       <r>   -8.6968    1.0000 </r>
       <r>   -8.6430    1.0000 </r>
       <r>   -8.5329    1.0000 </r>
       <r>   -8.4070    1.0000 </r>
       <r>   -8.3546    1.0000 </r>
       <r>   -8.2702    1.0000 </r>
       <r>   -8.1486    1.0000 </r>
       <r>   -8.0714    1.0000 </r>
       <r>   -8.0017    1.0000 </r>
       <r>   -7.9581    1.0000 </r>
       <r>   -7.9210    1.0000 </r>
       <r>   -7.7433    1.0000 </r>
       <r>   -7.6544    1.0000 </r>
       <r>   -7.5677    1.0000 </r>
       <r>   -7.4986    1.0000 </r>
       <r>   -7.4188    1.0000 </r>
       <r>   -7.1906    1.0000 </r>
       <r>   -7.0911    1.0000 </r>
       <r>   -7.0522    1.0000 </r>
       <r>   -6.9521    1.0000 </r>
       <r>   -6.8949    1.0000 </r>
       <r>   -6.8165    1.0000 </r>
       <r>   -6.7637    1.0000 </r>
       <r>   -6.6641    1.0000 </r>
       <r>   -6.6273    1.0000 </r>
       <r>   -6.6088    1.0000 </r>
       <r>   -6.5035    1.0000 </r>
       <r>   -6.4453    1.0000 </r>
       <r>   -6.4089    1.0000 </r>
       <r>   -6.2873    1.0000 </r>
       <r>   -6.1535    1.0000 </r>
       <r>   -6.1225    1.0000 </r>
       <r>   -6.0490    1.0000 </r>
       <r>   -5.9749    1.0000 </r>
       <r>   -5.9569    1.0000 </r>
       <r>   -5.8519    1.0000 </r>
       <r>   -5.8148    1.0000 </r>
       <r>   -5.7078    1.0000 </r>
       <r>   -5.6681    1.0000 </r>
       <r>   -5.6613    1.0000 </r>
       <r>   -5.4296    1.0000 </r>
       <r>   -5.2677    1.0000 </r>
       <r>   -5.1588    1.0000 </r>
       <r>   -5.0576    1.0000 </r>
       <r>   -4.9137    1.0000 </r>
       <r>   -4.8171    1.0000 </r>
       <r>   -4.7167    1.0000 </r>
       <r>   -4.5439    1.0000 </r>
       <r>   -4.4389    1.0000 </r>
       <r>   -4.2857    1.0000 </r>
       <r>   -4.2329    1.0000 </r>
       <r>   -4.1911    1.0000 </r>
       <r>   -3.9651    1.0000 </r>
       <r>   -3.7927    1.0000 </r>
       <r>   -3.5969    0.9988 </r>
       <r>   -3.3140    0.8517 </r>
       <r>   -3.0975    0.3131 </r>
       <r>   -2.9763    0.0895 </r>
       <r>   -2.9361    0.0518 </r>
       <r>   -2.7384    0.0012 </r>
       <r>   -2.6939    0.0004 </r>
       <r>   -2.6166    0.0001 </r>
       <r>   -2.5202    0.0000 </r>
       <r>   -2.4835    0.0000 </r>
       <r>   -2.2096    0.0000 </r>
       <r>   -2.0567    0.0000 </r>
       <r>   -2.0298    0.0000 </r>
       <r>   -1.8605    0.0000 </r>
       <r>   -1.5153    0.0000 </r>
       <r>   -1.3285    0.0000 </r>
       <r>   -1.2684    0.0000 </r>
       <r>   -1.2247    0.0000 </r>
       <r>   -1.1235    0.0000 </r>
       <r>   -1.0223    0.0000 </r>
       <r>   -0.9811    0.0000 </r>
       <r>   -0.9084    0.0000 </r>
       <r>   -0.8377    0.0000 </r>
       <r>   -0.7796    0.0000 </r>
       <r>   -0.7255    0.0000 </r>
       <r>   -0.6548    0.0000 </r>
       <r>   -0.6169    0.0000 </r>
       <r>   -0.5040    0.0000 </r>
       <r>   -0.3326    0.0000 </r>
       <r>   -0.2005    0.0000 </r>
       <r>   -0.1007    0.0000 </r>
       <r>    0.0470    0.0000 </r>
       <r>    0.1948    0.0000 </r>
       <r>    0.3176    0.0000 </r>
       <r>    0.4577    0.0000 </r>
       <r>    0.8330    0.0000 </r>
       <r>    0.8669    0.0000 </r>
       <r>    1.1490    0.0000 </r>
       <r>    1.3697    0.0000 </r>
       <r>    1.5175    0.0000 </r>
       <r>    2.1461    0.0000 </r>
       <r>    2.2910    0.0000 </r>
       <r>    2.4055    0.0000 </r>
      </set>
      <set comment="kpoint 32">
       <r>  -17.5216    1.0000 </r>
       <r>  -17.2030    1.0000 </r>
       <r>  -17.0088    1.0000 </r>
       <r>  -16.5430    1.0000 </r>
       <r>  -16.4999    1.0000 </r>
       <r>  -16.3237    1.0000 </r>
       <r>  -16.2613    1.0000 </r>
       <r>  -16.1901    1.0000 </r>
       <r>  -16.1510    1.0000 </r>
       <r>  -16.0957    1.0000 </r>
       <r>  -15.8786    1.0000 </r>
       <r>  -15.8435    1.0000 </r>
       <r>  -15.8259    1.0000 </r>
       <r>  -15.7342    1.0000 </r>
       <r>  -15.5948    1.0000 </r>
       <r>  -15.5054    1.0000 </r>
       <r>  -15.4541    1.0000 </r>
       <r>  -15.4000    1.0000 </r>
       <r>   -9.7232    1.0000 </r>
       <r>   -9.5974    1.0000 </r>
       <r>   -9.3219    1.0000 </r>
       <r>   -8.8850    1.0000 </r>
       <r>   -8.7070    1.0000 </r>
       <r>   -8.6583    1.0000 </r>
       <r>   -8.6016    1.0000 </r>
       <r>   -8.4357    1.0000 </r>
       <r>   -8.3986    1.0000 </r>
       <r>   -8.3553    1.0000 </r>
       <r>   -8.2816    1.0000 </r>
       <r>   -8.1919    1.0000 </r>
       <r>   -8.1489    1.0000 </r>
       <r>   -8.0756    1.0000 </r>
       <r>   -8.0448    1.0000 </r>
       <r>   -7.9595    1.0000 </r>
       <r>   -7.7005    1.0000 </r>
       <r>   -7.6436    1.0000 </r>
       <r>   -7.5289    1.0000 </r>
       <r>   -7.4840    1.0000 </r>
       <r>   -7.3511    1.0000 </r>
       <r>   -7.2970    1.0000 </r>
       <r>   -7.1013    1.0000 </r>
       <r>   -7.0531    1.0000 </r>
       <r>   -6.9874    1.0000 </r>
       <r>   -6.8733    1.0000 </r>
       <r>   -6.7744    1.0000 </r>
       <r>   -6.7420    1.0000 </r>
       <r>   -6.7044    1.0000 </r>
       <r>   -6.6182    1.0000 </r>
       <r>   -6.5755    1.0000 </r>
       <r>   -6.5258    1.0000 </r>
       <r>   -6.4257    1.0000 </r>
       <r>   -6.4000    1.0000 </r>
       <r>   -6.3714    1.0000 </r>
       <r>   -6.1867    1.0000 </r>
       <r>   -6.0969    1.0000 </r>
       <r>   -6.0273    1.0000 </r>
       <r>   -5.9850    1.0000 </r>
       <r>   -5.9257    1.0000 </r>
       <r>   -5.8674    1.0000 </r>
       <r>   -5.7284    1.0000 </r>
       <r>   -5.7176    1.0000 </r>
       <r>   -5.5859    1.0000 </r>
       <r>   -5.5203    1.0000 </r>
       <r>   -5.4123    1.0000 </r>
       <r>   -5.3613    1.0000 </r>
       <r>   -5.2551    1.0000 </r>
       <r>   -5.0403    1.0000 </r>
       <r>   -4.9434    1.0000 </r>
       <r>   -4.8691    1.0000 </r>
       <r>   -4.7877    1.0000 </r>
       <r>   -4.5108    1.0000 </r>
       <r>   -4.4470    1.0000 </r>
       <r>   -4.3089    1.0000 </r>
       <r>   -4.2183    1.0000 </r>
       <r>   -4.1824    1.0000 </r>
       <r>   -3.9548    1.0000 </r>
       <r>   -3.7866    1.0000 </r>
       <r>   -3.5744    0.9980 </r>
       <r>   -3.2767    0.7824 </r>
       <r>   -3.0824    0.2763 </r>
       <r>   -3.0093    0.1333 </r>
       <r>   -2.9438    0.0577 </r>
       <r>   -2.7413    0.0013 </r>
       <r>   -2.6951    0.0004 </r>
       <r>   -2.6057    0.0000 </r>
       <r>   -2.5209    0.0000 </r>
       <r>   -2.4801    0.0000 </r>
       <r>   -2.2104    0.0000 </r>
       <r>   -2.0572    0.0000 </r>
       <r>   -2.0293    0.0000 </r>
       <r>   -1.8911    0.0000 </r>
       <r>   -1.5170    0.0000 </r>
       <r>   -1.3327    0.0000 </r>
       <r>   -1.2746    0.0000 </r>
       <r>   -1.2243    0.0000 </r>
       <r>   -1.1267    0.0000 </r>
       <r>   -1.0250    0.0000 </r>
       <r>   -0.9544    0.0000 </r>
       <r>   -0.8995    0.0000 </r>
       <r>   -0.8299    0.0000 </r>
       <r>   -0.8107    0.0000 </r>
       <r>   -0.7354    0.0000 </r>
       <r>   -0.6321    0.0000 </r>
       <r>   -0.6083    0.0000 </r>
       <r>   -0.4185    0.0000 </r>
       <r>   -0.3841    0.0000 </r>
       <r>   -0.1831    0.0000 </r>
       <r>   -0.1237    0.0000 </r>
       <r>    0.0740    0.0000 </r>
       <r>    0.1799    0.0000 </r>
       <r>    0.2926    0.0000 </r>
       <r>    0.4476    0.0000 </r>
       <r>    0.8219    0.0000 </r>
       <r>    0.8750    0.0000 </r>
       <r>    1.1361    0.0000 </r>
       <r>    1.3688    0.0000 </r>
       <r>    1.5068    0.0000 </r>
       <r>    2.1142    0.0000 </r>
       <r>    2.2589    0.0000 </r>
       <r>    2.5726    0.0000 </r>
      </set>
      <set comment="kpoint 33">
       <r>  -17.5067    1.0000 </r>
       <r>  -17.2744    1.0000 </r>
       <r>  -16.8981    1.0000 </r>
       <r>  -16.5463    1.0000 </r>
       <r>  -16.5265    1.0000 </r>
       <r>  -16.4392    1.0000 </r>
       <r>  -16.2305    1.0000 </r>
       <r>  -16.1810    1.0000 </r>
       <r>  -16.1270    1.0000 </r>
       <r>  -16.0826    1.0000 </r>
       <r>  -15.8650    1.0000 </r>
       <r>  -15.8366    1.0000 </r>
       <r>  -15.7981    1.0000 </r>
       <r>  -15.7343    1.0000 </r>
       <r>  -15.6158    1.0000 </r>
       <r>  -15.5082    1.0000 </r>
       <r>  -15.4639    1.0000 </r>
       <r>  -15.4004    1.0000 </r>
       <r>   -9.7784    1.0000 </r>
       <r>   -9.5046    1.0000 </r>
       <r>   -9.2614    1.0000 </r>
       <r>   -8.9126    1.0000 </r>
       <r>   -8.8075    1.0000 </r>
       <r>   -8.6949    1.0000 </r>
       <r>   -8.6428    1.0000 </r>
       <r>   -8.5326    1.0000 </r>
       <r>   -8.4085    1.0000 </r>
       <r>   -8.3531    1.0000 </r>
       <r>   -8.2735    1.0000 </r>
       <r>   -8.1494    1.0000 </r>
       <r>   -8.0727    1.0000 </r>
       <r>   -8.0009    1.0000 </r>
       <r>   -7.9568    1.0000 </r>
       <r>   -7.9222    1.0000 </r>
       <r>   -7.7351    1.0000 </r>
       <r>   -7.6479    1.0000 </r>
       <r>   -7.5697    1.0000 </r>
       <r>   -7.5083    1.0000 </r>
       <r>   -7.4220    1.0000 </r>
       <r>   -7.1837    1.0000 </r>
       <r>   -7.0913    1.0000 </r>
       <r>   -7.0575    1.0000 </r>
       <r>   -6.9528    1.0000 </r>
       <r>   -6.8993    1.0000 </r>
       <r>   -6.8192    1.0000 </r>
       <r>   -6.7619    1.0000 </r>
       <r>   -6.6635    1.0000 </r>
       <r>   -6.6281    1.0000 </r>
       <r>   -6.6137    1.0000 </r>
       <r>   -6.5041    1.0000 </r>
       <r>   -6.4416    1.0000 </r>
       <r>   -6.4029    1.0000 </r>
       <r>   -6.2801    1.0000 </r>
       <r>   -6.1542    1.0000 </r>
       <r>   -6.1196    1.0000 </r>
       <r>   -6.0476    1.0000 </r>
       <r>   -5.9797    1.0000 </r>
       <r>   -5.9561    1.0000 </r>
       <r>   -5.8479    1.0000 </r>
       <r>   -5.8132    1.0000 </r>
       <r>   -5.7107    1.0000 </r>
       <r>   -5.6745    1.0000 </r>
       <r>   -5.6627    1.0000 </r>
       <r>   -5.4233    1.0000 </r>
       <r>   -5.2691    1.0000 </r>
       <r>   -5.1617    1.0000 </r>
       <r>   -5.0602    1.0000 </r>
       <r>   -4.9108    1.0000 </r>
       <r>   -4.8187    1.0000 </r>
       <r>   -4.7158    1.0000 </r>
       <r>   -4.5474    1.0000 </r>
       <r>   -4.4449    1.0000 </r>
       <r>   -4.2763    1.0000 </r>
       <r>   -4.2297    1.0000 </r>
       <r>   -4.1897    1.0000 </r>
       <r>   -3.9665    1.0000 </r>
       <r>   -3.7875    1.0000 </r>
       <r>   -3.5989    0.9989 </r>
       <r>   -3.3270    0.8720 </r>
       <r>   -3.0831    0.2780 </r>
       <r>   -2.9696    0.0821 </r>
       <r>   -2.9422    0.0564 </r>
       <r>   -2.7456    0.0015 </r>
       <r>   -2.6942    0.0004 </r>
       <r>   -2.6142    0.0000 </r>
       <r>   -2.5399    0.0000 </r>
       <r>   -2.4718    0.0000 </r>
       <r>   -2.2086    0.0000 </r>
       <r>   -2.0537    0.0000 </r>
       <r>   -2.0259    0.0000 </r>
       <r>   -1.8640    0.0000 </r>
       <r>   -1.5129    0.0000 </r>
       <r>   -1.3256    0.0000 </r>
       <r>   -1.2677    0.0000 </r>
       <r>   -1.2258    0.0000 </r>
       <r>   -1.1275    0.0000 </r>
       <r>   -1.0213    0.0000 </r>
       <r>   -0.9821    0.0000 </r>
       <r>   -0.9161    0.0000 </r>
       <r>   -0.8318    0.0000 </r>
       <r>   -0.7817    0.0000 </r>
       <r>   -0.7267    0.0000 </r>
       <r>   -0.6565    0.0000 </r>
       <r>   -0.6125    0.0000 </r>
       <r>   -0.5024    0.0000 </r>
       <r>   -0.3330    0.0000 </r>
       <r>   -0.2057    0.0000 </r>
       <r>   -0.0990    0.0000 </r>
       <r>    0.0440    0.0000 </r>
       <r>    0.1936    0.0000 </r>
       <r>    0.3141    0.0000 </r>
       <r>    0.4606    0.0000 </r>
       <r>    0.8292    0.0000 </r>
       <r>    0.8777    0.0000 </r>
       <r>    1.1505    0.0000 </r>
       <r>    1.3681    0.0000 </r>
       <r>    1.5208    0.0000 </r>
       <r>    2.1462    0.0000 </r>
       <r>    2.2908    0.0000 </r>
       <r>    2.4058    0.0000 </r>
      </set>
      <set comment="kpoint 34">
       <r>  -17.4860    1.0000 </r>
       <r>  -17.3299    1.0000 </r>
       <r>  -16.7280    1.0000 </r>
       <r>  -16.6835    1.0000 </r>
       <r>  -16.5367    1.0000 </r>
       <r>  -16.4752    1.0000 </r>
       <r>  -16.2259    1.0000 </r>
       <r>  -16.1727    1.0000 </r>
       <r>  -16.1220    1.0000 </r>
       <r>  -16.0710    1.0000 </r>
       <r>  -15.8518    1.0000 </r>
       <r>  -15.8366    1.0000 </r>
       <r>  -15.7560    1.0000 </r>
       <r>  -15.6996    1.0000 </r>
       <r>  -15.6752    1.0000 </r>
       <r>  -15.5112    1.0000 </r>
       <r>  -15.4732    1.0000 </r>
       <r>  -15.4004    1.0000 </r>
       <r>   -9.8109    1.0000 </r>
       <r>   -9.4212    1.0000 </r>
       <r>   -9.1353    1.0000 </r>
       <r>   -9.0690    1.0000 </r>
       <r>   -8.8451    1.0000 </r>
       <r>   -8.7494    1.0000 </r>
       <r>   -8.6739    1.0000 </r>
       <r>   -8.5451    1.0000 </r>
       <r>   -8.4530    1.0000 </r>
       <r>   -8.3657    1.0000 </r>
       <r>   -8.2085    1.0000 </r>
       <r>   -8.1672    1.0000 </r>
       <r>   -8.0539    1.0000 </r>
       <r>   -7.9569    1.0000 </r>
       <r>   -7.8642    1.0000 </r>
       <r>   -7.8011    1.0000 </r>
       <r>   -7.7617    1.0000 </r>
       <r>   -7.6802    1.0000 </r>
       <r>   -7.6218    1.0000 </r>
       <r>   -7.5252    1.0000 </r>
       <r>   -7.3984    1.0000 </r>
       <r>   -7.2647    1.0000 </r>
       <r>   -7.0615    1.0000 </r>
       <r>   -7.0092    1.0000 </r>
       <r>   -6.9289    1.0000 </r>
       <r>   -6.8921    1.0000 </r>
       <r>   -6.8603    1.0000 </r>
       <r>   -6.7738    1.0000 </r>
       <r>   -6.6646    1.0000 </r>
       <r>   -6.6126    1.0000 </r>
       <r>   -6.5516    1.0000 </r>
       <r>   -6.5216    1.0000 </r>
       <r>   -6.4629    1.0000 </r>
       <r>   -6.3962    1.0000 </r>
       <r>   -6.2586    1.0000 </r>
       <r>   -6.2073    1.0000 </r>
       <r>   -6.1071    1.0000 </r>
       <r>   -6.0415    1.0000 </r>
       <r>   -5.9967    1.0000 </r>
       <r>   -5.9784    1.0000 </r>
       <r>   -5.8604    1.0000 </r>
       <r>   -5.7910    1.0000 </r>
       <r>   -5.7814    1.0000 </r>
       <r>   -5.7164    1.0000 </r>
       <r>   -5.6745    1.0000 </r>
       <r>   -5.4459    1.0000 </r>
       <r>   -5.3645    1.0000 </r>
       <r>   -5.0094    1.0000 </r>
       <r>   -4.9977    1.0000 </r>
       <r>   -4.9054    1.0000 </r>
       <r>   -4.8099    1.0000 </r>
       <r>   -4.6625    1.0000 </r>
       <r>   -4.6049    1.0000 </r>
       <r>   -4.3356    1.0000 </r>
       <r>   -4.3270    1.0000 </r>
       <r>   -4.2261    1.0000 </r>
       <r>   -4.1954    1.0000 </r>
       <r>   -3.9871    1.0000 </r>
       <r>   -3.7928    1.0000 </r>
       <r>   -3.6261    0.9994 </r>
       <r>   -3.3590    0.9134 </r>
       <r>   -3.0889    0.2919 </r>
       <r>   -2.9578    0.0702 </r>
       <r>   -2.9217    0.0418 </r>
       <r>   -2.7475    0.0015 </r>
       <r>   -2.6942    0.0004 </r>
       <r>   -2.6238    0.0001 </r>
       <r>   -2.5510    0.0000 </r>
       <r>   -2.4682    0.0000 </r>
       <r>   -2.2069    0.0000 </r>
       <r>   -2.0401    0.0000 </r>
       <r>   -2.0338    0.0000 </r>
       <r>   -1.8381    0.0000 </r>
       <r>   -1.5075    0.0000 </r>
       <r>   -1.3221    0.0000 </r>
       <r>   -1.2570    0.0000 </r>
       <r>   -1.2251    0.0000 </r>
       <r>   -1.1325    0.0000 </r>
       <r>   -1.0480    0.0000 </r>
       <r>   -0.9763    0.0000 </r>
       <r>   -0.9098    0.0000 </r>
       <r>   -0.8443    0.0000 </r>
       <r>   -0.7569    0.0000 </r>
       <r>   -0.7191    0.0000 </r>
       <r>   -0.6636    0.0000 </r>
       <r>   -0.6404    0.0000 </r>
       <r>   -0.5639    0.0000 </r>
       <r>   -0.2953    0.0000 </r>
       <r>   -0.2343    0.0000 </r>
       <r>   -0.0757    0.0000 </r>
       <r>    0.0219    0.0000 </r>
       <r>    0.1990    0.0000 </r>
       <r>    0.3388    0.0000 </r>
       <r>    0.4683    0.0000 </r>
       <r>    0.8221    0.0000 </r>
       <r>    0.8967    0.0000 </r>
       <r>    1.1615    0.0000 </r>
       <r>    1.3674    0.0000 </r>
       <r>    1.5341    0.0000 </r>
       <r>    2.2346    0.0000 </r>
       <r>    2.2513    0.0000 </r>
       <r>    2.3754    0.0000 </r>
      </set>
     </set>
    </set>
   </array>
  </eigenvalues>
  <separator name="orbital magnetization" >
   <v name="MAGDIPOLOUT">      0.00000000      0.00000000      0.00000000</v>
  </separator>
 </calculation>
 <structure name="finalpos" >
  <crystal>
   <varray name="basis" >
    <v>       8.34448315       4.84950305       0.00000000 </v>
    <v>      -8.31712401       4.80213916       0.00000000 </v>
    <v>       0.00000000       0.00000000      30.00000000 </v>
   </varray>
   <i name="volume">   2412.15862700 </i>
   <varray name="rec_basis" >
    <v>       0.05972417       0.10344001       0.00000000 </v>
    <v>      -0.06031324       0.10378028       0.00000000 </v>
    <v>       0.00000000       0.00000000       0.03333333 </v>
   </varray>
  </crystal>
  <varray name="positions" >
   <v>       0.99748645       0.32364075       0.00118690 </v>
   <v>       0.03496895       0.01749046      -0.00154891 </v>
   <v>      -0.00006230       0.67514516       0.00121507 </v>
   <v>       0.34866674       0.33407108      -0.00043029 </v>
   <v>       0.34836596       0.01546307      -0.00040809 </v>
   <v>       0.63820484       0.31865617       0.00077464 </v>
   <v>       0.35337343       0.67548140      -0.00039008 </v>
   <v>       0.64633780       0.01415208       0.00007654 </v>
   <v>       0.64590935       0.63185932       0.00006837 </v>
   <v>       0.11015915       0.22270244       0.94908033 </v>
   <v>       0.22137650       0.11078040       0.05300845 </v>
   <v>       0.10890060       0.55438585       0.95257555 </v>
   <v>       0.21949099       0.44446945       0.04824141 </v>
   <v>       0.11036582       0.88787137       0.94900952 </v>
   <v>       0.22026413       0.77518718       0.04824972 </v>
   <v>       0.44024923       0.22028318       0.94333954 </v>
   <v>       0.55158894       0.11186513       0.05734571 </v>
   <v>       0.44263414       0.55248867       0.94515455 </v>
   <v>       0.55170798       0.43952775       0.05733050 </v>
   <v>       0.44243147       0.88995891       0.94543288 </v>
   <v>       0.56196667       0.78083208       0.05165789 </v>
   <v>       0.77636545       0.22638126       0.94931634 </v>
   <v>       0.89156144       0.10885114       0.04728265 </v>
   <v>       0.77648546       0.54991489       0.94947753 </v>
   <v>       0.88802577       0.44419686       0.04623445 </v>
   <v>       0.77964990       0.88972944       0.95959664 </v>
   <v>       0.89173961       0.78282899       0.04712209 </v>
  </varray>
 </structure>
</modeling>
