<?xml version="1.0" encoding="ISO-8859-1"?>
<modeling>
 <generator>
  <i name="program" type="string">vasp </i>
  <i name="version" type="string">5.4.1  </i>
  <i name="subversion" type="string">05Feb16 (build Jul 05 2020 17:13:04) complex                          parallel </i>
  <i name="platform" type="string">IFC91_ompi </i>
  <i name="date" type="string">2024 07 25 </i>
  <i name="time" type="string">07:36:43 </i>
 </generator>
 <incar>
  <i type="int" name="ISTART">     0</i>
  <i type="string" name="PREC">normal</i>
  <i type="string" name="ALGO"> Normal</i>
  <i type="int" name="ISPIN">     1</i>
  <i type="int" name="ICHARG">     2</i>
  <i type="int" name="IBRION">     1</i>
  <i type="int" name="NSW">   100</i>
  <i type="int" name="ISIF">     3</i>
  <i type="int" name="ISYM">     0</i>
  <i name="SYMPREC">      0.00000001</i>
  <i name="POTIM">      0.50000000</i>
  <i type="logical" name="LREAL"> F  </i>
  <i type="logical" name="LPLANE"> F  </i>
  <i type="int" name="ISMEAR">     0</i>
  <i type="logical" name="LWAVE"> F  </i>
  <i type="logical" name="LCHARG"> F  </i>
  <v type="int" name="KPOINT_BSE">    -1     0     0     0</v>
 </incar>
 <kpoints>
  <generation param="Gamma">
   <v type="int" name="divisions">       8        8        1 </v>
   <v name="usershift">      0.00000000       0.00000000       0.00000000 </v>
   <v name="genvec1">      0.12500000       0.00000000       0.00000000 </v>
   <v name="genvec2">     -0.00000000       0.12500000       0.00000000 </v>
   <v name="genvec3">      0.00000000       0.00000000       1.00000000 </v>
   <v name="shift">      0.00000000       0.00000000       0.00000000 </v>
  </generation>
  <varray name="kpointlist" >
   <v>       0.00000000       0.00000000       0.00000000 </v>
   <v>       0.12500000       0.00000000       0.00000000 </v>
   <v>       0.25000000       0.00000000       0.00000000 </v>
   <v>       0.37500000       0.00000000       0.00000000 </v>
   <v>       0.50000000       0.00000000       0.00000000 </v>
   <v>       0.00000000       0.12500000       0.00000000 </v>
   <v>       0.12500000       0.12500000       0.00000000 </v>
   <v>       0.25000000       0.12500000       0.00000000 </v>
   <v>       0.37500000       0.12500000       0.00000000 </v>
   <v>       0.50000000       0.12500000       0.00000000 </v>
   <v>      -0.37500000       0.12500000       0.00000000 </v>
   <v>      -0.25000000       0.12500000       0.00000000 </v>
   <v>      -0.12500000       0.12500000       0.00000000 </v>
   <v>       0.00000000       0.25000000       0.00000000 </v>
   <v>       0.12500000       0.25000000       0.00000000 </v>
   <v>       0.25000000       0.25000000       0.00000000 </v>
   <v>       0.37500000       0.25000000       0.00000000 </v>
   <v>       0.50000000       0.25000000       0.00000000 </v>
   <v>      -0.37500000       0.25000000       0.00000000 </v>
   <v>      -0.25000000       0.25000000       0.00000000 </v>
   <v>      -0.12500000       0.25000000       0.00000000 </v>
   <v>      -0.00000000       0.37500000       0.00000000 </v>
   <v>       0.12500000       0.37500000       0.00000000 </v>
   <v>       0.25000000       0.37500000       0.00000000 </v>
   <v>       0.37500000       0.37500000       0.00000000 </v>
   <v>       0.50000000       0.37500000       0.00000000 </v>
   <v>      -0.37500000       0.37500000       0.00000000 </v>
   <v>      -0.25000000       0.37500000       0.00000000 </v>
   <v>      -0.12500000       0.37500000       0.00000000 </v>
   <v>       0.00000000       0.50000000       0.00000000 </v>
   <v>       0.12500000       0.50000000       0.00000000 </v>
   <v>       0.25000000       0.50000000       0.00000000 </v>
   <v>       0.37500000       0.50000000       0.00000000 </v>
   <v>       0.50000000       0.50000000       0.00000000 </v>
  </varray>
  <varray name="weights" >
   <v>       0.01562500 </v>
   <v>       0.03125000 </v>
   <v>       0.03125000 </v>
   <v>       0.03125000 </v>
   <v>       0.01562500 </v>
   <v>       0.03125000 </v>
   <v>       0.03125000 </v>
   <v>       0.03125000 </v>
   <v>       0.03125000 </v>
   <v>       0.03125000 </v>
   <v>       0.03125000 </v>
   <v>       0.03125000 </v>
   <v>       0.03125000 </v>
   <v>       0.03125000 </v>
   <v>       0.03125000 </v>
   <v>       0.03125000 </v>
   <v>       0.03125000 </v>
   <v>       0.03125000 </v>
   <v>       0.03125000 </v>
   <v>       0.03125000 </v>
   <v>       0.03125000 </v>
   <v>       0.03125000 </v>
   <v>       0.03125000 </v>
   <v>       0.03125000 </v>
   <v>       0.03125000 </v>
   <v>       0.03125000 </v>
   <v>       0.03125000 </v>
   <v>       0.03125000 </v>
   <v>       0.03125000 </v>
   <v>       0.01562500 </v>
   <v>       0.03125000 </v>
   <v>       0.03125000 </v>
   <v>       0.03125000 </v>
   <v>       0.01562500 </v>
  </varray>
 </kpoints>
 <parameters>
  <separator name="general" >
   <i type="string" name="SYSTEM">unknown system</i>
   <i type="logical" name="LCOMPAT"> F  </i>
  </separator>
  <separator name="electronic" >
   <i type="string" name="PREC">normal</i>
   <i name="ENMAX">    280.00000000</i>
   <i name="ENAUG">    373.43800000</i>
   <i name="EDIFF">      0.00010000</i>
   <i type="int" name="IALGO">    38</i>
   <i type="int" name="IWAVPR">    11</i>
   <i type="int" name="NBANDS">   120</i>
   <i name="NELECT">    159.00000000</i>
   <i type="int" name="TURBO">     0</i>
   <i type="int" name="IRESTART">     0</i>
   <i type="int" name="NREBOOT">     0</i>
   <i type="int" name="NMIN">     0</i>
   <i name="EREF">      0.00000000</i>
   <separator name="electronic smearing" >
    <i type="int" name="ISMEAR">     0</i>
    <i name="SIGMA">      0.20000000</i>
    <i name="KSPACING">      0.50000000</i>
    <i type="logical" name="KGAMMA"> T  </i>
   </separator>
   <separator name="electronic projectors" >
    <i type="logical" name="LREAL"> F  </i>
    <v name="ROPT">      0.00000000      0.00000000      0.00000000      0.00000000</v>
    <i type="int" name="LMAXPAW">  -100</i>
    <i type="int" name="LMAXMIX">     2</i>
    <i type="logical" name="NLSPLINE"> F  </i>
   </separator>
   <separator name="electronic startup" >
    <i type="int" name="ISTART">     0</i>
    <i type="int" name="ICHARG">     2</i>
    <i type="int" name="INIWAV">     1</i>
   </separator>
   <separator name="electronic spin" >
    <i type="int" name="ISPIN">     1</i>
    <i type="logical" name="LNONCOLLINEAR"> F  </i>
    <v name="MAGMOM">      1.00000000      1.00000000      1.00000000      1.00000000      1.00000000      1.00000000      1.00000000      1.00000000      1.00000000      1.00000000      1.00000000      1.00000000      1.00000000      1.00000000      1.00000000      1.00000000      1.00000000      1.00000000      1.00000000      1.00000000
      1.00000000      1.00000000      1.00000000      1.00000000      1.00000000      1.00000000      1.00000000</v>
    <i name="NUPDOWN">     -1.00000000</i>
    <i type="logical" name="LSORBIT"> F  </i>
    <v name="SAXIS">      0.00000000      0.00000000      1.00000000</v>
    <i type="logical" name="LSPIRAL"> F  </i>
    <v name="QSPIRAL">      0.00000000      0.00000000      0.00000000</v>
    <i type="logical" name="LZEROZ"> F  </i>
   </separator>
   <separator name="electronic exchange-correlation" >
    <i type="logical" name="LASPH"> F  </i>
    <i type="logical" name="LMETAGGA"> F  </i>
   </separator>
   <separator name="electronic convergence" >
    <i type="int" name="NELM">    60</i>
    <i type="int" name="NELMDL">    -5</i>
    <i type="int" name="NELMIN">     2</i>
    <i name="ENINI">    280.00000000</i>
    <separator name="electronic convergence detail" >
     <i type="logical" name="LDIAG"> T  </i>
     <i type="logical" name="LSUBROT"> F  </i>
     <i name="WEIMIN">      0.00100000</i>
     <i name="EBREAK">      0.00000021</i>
     <i name="DEPER">      0.30000000</i>
     <i type="int" name="NRMM">     4</i>
     <i name="TIME">      0.40000000</i>
    </separator>
   </separator>
   <separator name="electronic mixer" >
    <i name="AMIX">      0.40000000</i>
    <i name="BMIX">      1.00000000</i>
    <i name="AMIN">      0.10000000</i>
    <i name="AMIX_MAG">      1.60000000</i>
    <i name="BMIX_MAG">      1.00000000</i>
    <separator name="electronic mixer details" >
     <i type="int" name="IMIX">     4</i>
     <i type="logical" name="MIXFIRST"> F  </i>
     <i type="int" name="MAXMIX">   -45</i>
     <i name="WC">    100.00000000</i>
     <i type="int" name="INIMIX">     1</i>
     <i type="int" name="MIXPRE">     1</i>
     <i type="int" name="MREMOVE">     5</i>
    </separator>
   </separator>
   <separator name="electronic dipolcorrection" >
    <i type="logical" name="LDIPOL"> F  </i>
    <i type="logical" name="LMONO"> F  </i>
    <i type="int" name="IDIPOL">     0</i>
    <i name="EPSILON">      1.00000000</i>
    <v name="DIPOL">   -100.00000000   -100.00000000   -100.00000000</v>
    <i name="EFIELD">      0.00000000</i>
   </separator>
  </separator>
  <separator name="grids" >
   <i type="int" name="NGX">    42</i>
   <i type="int" name="NGY">    42</i>
   <i type="int" name="NGZ">   126</i>
   <i type="int" name="NGXF">    84</i>
   <i type="int" name="NGYF">    84</i>
   <i type="int" name="NGZF">   252</i>
   <i type="logical" name="ADDGRID"> F  </i>
  </separator>
  <separator name="ionic" >
   <i type="int" name="NSW">   100</i>
   <i type="int" name="IBRION">     1</i>
   <i type="int" name="ISIF">     3</i>
   <i name="PSTRESS">      0.00000000</i>
   <i name="EDIFFG">      0.00100000</i>
   <i type="int" name="NFREE">     0</i>
   <i name="POTIM">      0.50000000</i>
   <i name="SMASS">     -3.00000000</i>
   <i name="SCALEE">      1.00000000</i>
  </separator>
  <separator name="ionic md" >
   <i name="TEBEG">      0.00010000</i>
   <i name="TEEND">      0.00010000</i>
   <i type="int" name="NBLOCK">     1</i>
   <i type="int" name="KBLOCK">   100</i>
   <i type="int" name="NPACO">   256</i>
   <i name="APACO">     16.00000000</i>
  </separator>
  <separator name="symmetry" >
   <i type="int" name="ISYM">     0</i>
   <i name="SYMPREC">      0.00000001</i>
  </separator>
  <separator name="dos" >
   <i type="logical" name="LORBIT"> F  </i>
   <v name="RWIGS">     -1.00000000     -1.00000000     -1.00000000     -1.00000000</v>
   <i type="int" name="NEDOS">   301</i>
   <i name="EMIN">     10.00000000</i>
   <i name="EMAX">    -10.00000000</i>
   <i name="EFERMI">      0.00000000</i>
  </separator>
  <separator name="writing" >
   <i type="int" name="NWRITE">     2</i>
   <i type="logical" name="LWAVE"> F  </i>
   <i type="logical" name="LCHARG"> F  </i>
   <i type="logical" name="LPARD"> F  </i>
   <i type="logical" name="LVTOT"> F  </i>
   <i type="logical" name="LVHAR"> F  </i>
   <i type="logical" name="LELF"> F  </i>
   <i type="logical" name="LOPTICS"> F  </i>
   <v name="STM">      0.00000000      0.00000000      0.00000000      0.00000000      0.00000000      0.00000000      0.00000000</v>
  </separator>
  <separator name="performance" >
   <i type="int" name="NPAR">    40</i>
   <i type="int" name="NSIM">     4</i>
   <i type="int" name="NBLK">    -1</i>
   <i type="logical" name="LPLANE"> F  </i>
   <i type="logical" name="LSCALAPACK"> T  </i>
   <i type="logical" name="LSCAAWARE"> F  </i>
   <i type="logical" name="LSCALU"> F  </i>
   <i type="logical" name="LASYNC"> F  </i>
   <i type="logical" name="LORBITALREAL"> F  </i>
  </separator>
  <separator name="miscellaneous" >
   <i type="int" name="IDIOT">     3</i>
   <i type="logical" name="LMUSIC"> F  </i>
   <v name="POMASS">     50.94100000     95.94000000    183.85000000     32.06600000</v>
   <v name="DARWINR">      0.00000000      0.00000000      0.00000000      0.00000000</v>
   <v name="DARWINV">      1.00000000      1.00000000      1.00000000      1.00000000</v>
   <i type="logical" name="LCORR"> T  </i>
  </separator>
  <i type="logical" name="GGA_COMPAT"> T  </i>
  <i type="logical" name="LBERRY"> F  </i>
  <i type="int" name="ICORELEVEL">     0</i>
  <i type="logical" name="LDAU"> F  </i>
  <i type="int" name="I_CONSTRAINED_M">     0</i>
  <separator name="electronic exchange-correlation" >
   <i type="string" name="GGA">--</i>
   <i type="int" name="VOSKOWN">     0</i>
   <i type="logical" name="LHFCALC"> F  </i>
   <i type="string" name="PRECFOCK"></i>
   <i type="logical" name="LSYMGRAD"> F  </i>
   <i type="logical" name="LHFONE"> F  </i>
   <i type="logical" name="LRHFCALC"> F  </i>
   <i type="logical" name="LTHOMAS"> F  </i>
   <i type="logical" name="LMODELHF"> F  </i>
   <i name="ENCUT4O">     -1.00000000</i>
   <i type="int" name="EXXOEP">     0</i>
   <i type="int" name="FOURORBIT">     0</i>
   <i name="AEXX">      0.00000000</i>
   <i name="HFALPHA">      0.00000000</i>
   <i name="MCALPHA">      0.00000000</i>
   <i name="ALDAX">      1.00000000</i>
   <i name="AGGAX">      1.00000000</i>
   <i name="ALDAC">      1.00000000</i>
   <i name="AGGAC">      1.00000000</i>
   <i type="int" name="NKREDX">     1</i>
   <i type="int" name="NKREDY">     1</i>
   <i type="int" name="NKREDZ">     1</i>
   <i type="logical" name="SHIFTRED"> F  </i>
   <i type="logical" name="ODDONLY"> F  </i>
   <i type="logical" name="EVENONLY"> F  </i>
   <i type="int" name="LMAXFOCK">     0</i>
   <i type="int" name="NMAXFOCKAE">     0</i>
   <i type="logical" name="LFOCKAEDFT"> F  </i>
   <i name="HFSCREEN">      0.00000000</i>
   <i name="HFSCREENC">      0.00000000</i>
   <i type="int" name="NBANDSGWLOW">     0</i>
  </separator>
  <separator name="vdW DFT" >
   <i type="logical" name="LUSE_VDW"> F  </i>
   <i name="Zab_VDW">     -0.84910000</i>
   <i name="PARAM1">      0.12340000</i>
   <i name="PARAM2">      1.00000000</i>
   <i name="PARAM3">      0.00000000</i>
  </separator>
  <separator name="model GW" >
   <i type="int" name="MODEL_GW">     0</i>
   <i name="MODEL_EPS0">     58.26239943</i>
   <i name="MODEL_ALPHA">      1.00000000</i>
  </separator>
  <separator name="linear response parameters" >
   <i type="logical" name="LEPSILON"> F  </i>
   <i type="logical" name="LRPA"> F  </i>
   <i type="logical" name="LNABLA"> F  </i>
   <i type="logical" name="LVEL"> F  </i>
   <i type="int" name="KINTER">     0</i>
   <i name="CSHIFT">      0.10000000</i>
   <i name="OMEGAMAX">     -1.00000000</i>
   <i name="DEG_THRESHOLD">      0.00200000</i>
  </separator>
  <separator name="orbital magnetization" >
   <i type="logical" name="NUCIND"> F  </i>
   <v name="MAGPOS">      0.00000000      0.00000000      0.00000000</v>
   <i type="logical" name="LNICSALL"> T  </i>
   <i type="logical" name="ORBITALMAG"> F  </i>
   <i type="logical" name="LMAGBLOCH"> F  </i>
   <i type="logical" name="LCHIMAG"> F  </i>
   <i type="logical" name="LGAUGE"> T  </i>
   <i type="int" name="MAGATOM">     0</i>
   <v name="MAGDIPOL">      0.00000000      0.00000000      0.00000000</v>
   <v name="AVECCONST">      0.00000000      0.00000000      0.00000000</v>
  </separator>
  <separator name="response functions" >
   <i type="logical" name="LADDER"> F  </i>
   <i type="logical" name="LFXC"> F  </i>
   <i type="logical" name="LHARTREE"> T  </i>
   <i type="int" name="IBSE">     0</i>
   <v type="int" name="KPOINT">    -1     0     0     0</v>
   <i type="logical" name="LTCTE"> F  </i>
   <i type="logical" name="LTETE"> F  </i>
   <i type="logical" name="LTRIPLET"> F  </i>
   <i type="logical" name="LFXCEPS"> F  </i>
   <i type="logical" name="LFXHEG"> F  </i>
   <i type="int" name="NATURALO">     0</i>
   <i type="logical" name="L2ORDER"> F  </i>
   <i type="logical" name="LUSEW"> F  </i>
   <i name="ENCUTGW">     -2.00000000</i>
   <i name="ENCUTGWSOFT">     -2.00000000</i>
   <i name="ENCUTLF">     -1.00000000</i>
   <i type="int" name="LMAXMP2">    -1</i>
   <i name="SCISSOR">      0.00000000</i>
   <i type="int" name="NOMEGA">     0</i>
   <i type="int" name="NOMEGAR">     0</i>
   <i type="int" name="NBANDSGW">    -1</i>
   <i type="int" name="NBANDSO">    -1</i>
   <i type="int" name="NBANDSV">    -1</i>
   <i type="int" name="NELM">     1</i>
   <i type="int" name="NELMHF">     1</i>
   <i type="int" name="DIM">     3</i>
   <i type="int" name="ANTIRES">     0</i>
   <i name="OMEGAMAX">    -30.00000000</i>
   <i name="OMEGAMIN">    -30.00000000</i>
   <i name="OMEGATL">   -200.00000000</i>
   <i type="int" name="OMEGAGRID">     0</i>
   <i name="CSHIFT">     -0.10000000</i>
   <i type="logical" name="SELFENERGY"> F  </i>
   <i type="logical" name="LSPECTRAL"> F  </i>
   <i type="logical" name="LSPECTRALGW"> F  </i>
   <i type="logical" name="LSINGLES"> F  </i>
   <i type="logical" name="LFERMIGW"> F  </i>
   <i type="logical" name="ODDONLYGW"> F  </i>
   <i type="logical" name="EVENONLYGW"> F  </i>
   <i type="int" name="NKREDLFX">     1</i>
   <i type="int" name="NKREDLFY">     1</i>
   <i type="int" name="NKREDLFZ">     1</i>
   <i type="int" name="MAXMEM">  1800</i>
   <i type="int" name="TELESCOPE">     0</i>
   <i type="int" name="TAUPAR">     1</i>
   <i type="int" name="OMEGAPAR">    -1</i>
   <i name="LAMBDA">      1.00000000</i>
  </separator>
  <separator name="External order field" >
   <i name="OFIELD_KAPPA">      0.00000000</i>
   <v name="OFIELD_K">      0.00000000      0.00000000      0.00000000</v>
   <i name="OFIELD_Q6_NEAR">      0.00000000</i>
   <i name="OFIELD_Q6_FAR">      0.00000000</i>
   <i name="OFIELD_A">      0.00000000</i>
  </separator>
 </parameters>
 <atominfo>
  <atoms>      27 </atoms>
  <types>       4 </types>
  <array name="atoms" >
   <dimension dim="1">ion</dimension>
   <field type="string">element</field>
   <field type="int">atomtype</field>
   <set>
    <rc><c>V </c><c>   1</c></rc>
    <rc><c>V </c><c>   1</c></rc>
    <rc><c>V </c><c>   1</c></rc>
    <rc><c>Mo</c><c>   2</c></rc>
    <rc><c>Mo</c><c>   2</c></rc>
    <rc><c>Mo</c><c>   2</c></rc>
    <rc><c>W </c><c>   3</c></rc>
    <rc><c>W </c><c>   3</c></rc>
    <rc><c>W </c><c>   3</c></rc>
    <rc><c>S </c><c>   4</c></rc>
    <rc><c>S </c><c>   4</c></rc>
    <rc><c>S </c><c>   4</c></rc>
    <rc><c>S </c><c>   4</c></rc>
    <rc><c>S </c><c>   4</c></rc>
    <rc><c>S </c><c>   4</c></rc>
    <rc><c>S </c><c>   4</c></rc>
    <rc><c>S </c><c>   4</c></rc>
    <rc><c>S </c><c>   4</c></rc>
    <rc><c>S </c><c>   4</c></rc>
    <rc><c>S </c><c>   4</c></rc>
    <rc><c>S </c><c>   4</c></rc>
    <rc><c>S </c><c>   4</c></rc>
    <rc><c>S </c><c>   4</c></rc>
    <rc><c>S </c><c>   4</c></rc>
    <rc><c>S </c><c>   4</c></rc>
    <rc><c>S </c><c>   4</c></rc>
    <rc><c>S </c><c>   4</c></rc>
   </set>
  </array>
  <array name="atomtypes" >
   <dimension dim="1">type</dimension>
   <field type="int">atomspertype</field>
   <field type="string">element</field>
   <field>mass</field>
   <field>valence</field>
   <field type="string">pseudopotential</field>
   <set>
    <rc><c>   3</c><c>V </c><c>     50.94100000</c><c>      5.00000000</c><c> PAW_PBE V 08Apr2002                    </c></rc>
    <rc><c>   3</c><c>Mo</c><c>     95.94000000</c><c>      6.00000000</c><c> PAW_PBE Mo 08Apr2002                   </c></rc>
    <rc><c>   3</c><c>W </c><c>    183.85000000</c><c>      6.00000000</c><c> PAW_PBE W 08Apr2002                    </c></rc>
    <rc><c>  18</c><c>S </c><c>     32.06600000</c><c>      6.00000000</c><c>  PAW_PBE S 17Jan2003                   </c></rc>
   </set>
  </array>
 </atominfo>
 <structure name="initialpos" >
  <crystal>
   <varray name="basis" >
    <v>       8.66999996       5.03999989       0.00000000 </v>
    <v>      -8.66999982       5.04000013       0.00000000 </v>
    <v>       0.00000000       0.00000000      30.00000000 </v>
   </varray>
   <i name="volume">   2621.80797419 </i>
   <varray name="rec_basis" >
    <v>       0.05767013       0.09920635       0.00000000 </v>
    <v>      -0.05767013       0.09920635       0.00000000 </v>
    <v>       0.00000000       0.00000000       0.03333333 </v>
   </varray>
  </crystal>
  <varray name="positions" >
   <v>       0.33333334       0.33333334       0.00000000 </v>
   <v>       0.33333334       0.00000000       0.00000000 </v>
   <v>       0.00000000       0.66666669       0.00000000 </v>
   <v>       0.66666669       0.33333334       0.00000000 </v>
   <v>       0.66666669       0.66666669       0.00000000 </v>
   <v>       0.33333334       0.66666669       0.00000000 </v>
   <v>       0.00000000       0.00000000       0.00000000 </v>
   <v>       1.00000000       0.33333334       0.00000000 </v>
   <v>       0.66666669       0.00000000       0.00000000 </v>
   <v>       0.11068511       0.22244981       0.95539999 </v>
   <v>       0.22244981       0.11068511       0.04460000 </v>
   <v>       0.11068511       0.55578315       0.95539999 </v>
   <v>       0.22244981       0.44401845       0.04460000 </v>
   <v>       0.11068511       0.88911647       0.95539999 </v>
   <v>       0.22244981       0.77735180       0.04460000 </v>
   <v>       0.44401845       0.22244981       0.95539999 </v>
   <v>       0.55578315       0.11068511       0.04460000 </v>
   <v>       0.44401845       0.55578315       0.95539999 </v>
   <v>       0.55578315       0.44401845       0.04460000 </v>
   <v>       0.44401845       0.88911647       0.95539999 </v>
   <v>       0.55578315       0.77735180       0.04460000 </v>
   <v>       0.77735180       0.22244981       0.95539999 </v>
   <v>       0.88911647       0.11068511       0.04460000 </v>
   <v>       0.77735180       0.55578315       0.95539999 </v>
   <v>       0.88911647       0.44401845       0.04460000 </v>
   <v>       0.77735180       0.88911647       0.95539999 </v>
   <v>       0.88911647       0.77735180       0.04460000 </v>
  </varray>
 </structure>
 <calculation>
  <scstep>
   <time name="dav">   21.94   21.99</time>
   <time name="total">   21.98   22.04</time>
   <energy>
    <i name="alphaZ">     81.65567618 </i>
    <i name="ewald">  41890.23011097 </i>
    <i name="hartreedc"> -47722.87379859 </i>
    <i name="XCdc">   -242.92724119 </i>
    <i name="pawpsdc">   3467.42045192 </i>
    <i name="pawaedc">  -2871.19716117 </i>
    <i name="eentropy">     -0.52554342 </i>
    <i name="bandstr">   -239.52127558 </i>
    <i name="atom">   6761.44252427 </i>
    <i name="e_fr_energy">   1123.70374339 </i>
    <i name="e_wo_entrp">   1124.22928681 </i>
    <i name="e_0_energy">   1123.96651510 </i>
   </energy>
  </scstep>
  <scstep>
   <time name="dav">   28.45   28.52</time>
   <time name="total">   28.45   28.53</time>
   <energy>
    <i name="e_fr_energy">     -1.80647557 </i>
    <i name="e_wo_entrp">     -1.59547006 </i>
    <i name="e_0_energy">     -1.70097282 </i>
   </energy>
  </scstep>
  <scstep>
   <time name="dav">   27.81   27.88</time>
   <time name="total">   27.82   27.89</time>
   <energy>
    <i name="e_fr_energy">   -199.94619727 </i>
    <i name="e_wo_entrp">   -199.68512598 </i>
    <i name="e_0_energy">   -199.81566163 </i>
   </energy>
  </scstep>
  <scstep>
   <time name="dav">   29.87   29.95</time>
   <time name="total">   29.88   29.95</time>
   <energy>
    <i name="e_fr_energy">   -208.98601916 </i>
    <i name="e_wo_entrp">   -208.68709069 </i>
    <i name="e_0_energy">   -208.83655492 </i>
   </energy>
  </scstep>
  <scstep>
   <time name="dav">   28.89   28.96</time>
   <time name="total">   29.35   29.43</time>
   <energy>
    <i name="e_fr_energy">   -209.32369276 </i>
    <i name="e_wo_entrp">   -209.02758945 </i>
    <i name="e_0_energy">   -209.17564110 </i>
   </energy>
  </scstep>
  <scstep>
   <time name="dav">   31.65   31.72</time>
   <time name="total">   32.14   32.23</time>
   <energy>
    <i name="e_fr_energy">   -236.76938415 </i>
    <i name="e_wo_entrp">   -236.49178466 </i>
    <i name="e_0_energy">   -236.63058441 </i>
   </energy>
  </scstep>
  <scstep>
   <time name="dav">   32.35   32.43</time>
   <time name="total">   32.85   32.94</time>
   <energy>
    <i name="e_fr_energy">   -196.50522402 </i>
    <i name="e_wo_entrp">   -196.19061523 </i>
    <i name="e_0_energy">   -196.34791962 </i>
   </energy>
  </scstep>
  <scstep>
   <time name="dav">   29.67   29.74</time>
   <time name="total">   30.18   30.26</time>
   <energy>
    <i name="e_fr_energy">   -189.37816871 </i>
    <i name="e_wo_entrp">   -189.08168433 </i>
    <i name="e_0_energy">   -189.22992652 </i>
   </energy>
  </scstep>
  <scstep>
   <time name="dav">   32.37   32.45</time>
   <time name="total">   32.89   32.98</time>
   <energy>
    <i name="e_fr_energy">   -188.12051570 </i>
    <i name="e_wo_entrp">   -187.78649954 </i>
    <i name="e_0_energy">   -187.95350762 </i>
   </energy>
  </scstep>
  <scstep>
   <time name="dav">   33.01   33.09</time>
   <time name="total">   33.54   33.63</time>
   <energy>
    <i name="e_fr_energy">   -187.00999381 </i>
    <i name="e_wo_entrp">   -186.66455217 </i>
    <i name="e_0_energy">   -186.83727299 </i>
   </energy>
  </scstep>
  <scstep>
   <time name="dav">   32.66   32.74</time>
   <time name="total">   33.19   33.28</time>
   <energy>
    <i name="e_fr_energy">   -186.97168977 </i>
    <i name="e_wo_entrp">   -186.62041299 </i>
    <i name="e_0_energy">   -186.79605138 </i>
   </energy>
  </scstep>
  <scstep>
   <time name="dav">   30.98   31.05</time>
   <time name="total">   31.51   31.59</time>
   <energy>
    <i name="e_fr_energy">   -187.10330861 </i>
    <i name="e_wo_entrp">   -186.76345115 </i>
    <i name="e_0_energy">   -186.93337988 </i>
   </energy>
  </scstep>
  <scstep>
   <time name="dav">   31.76   31.83</time>
   <time name="total">   32.29   32.38</time>
   <energy>
    <i name="e_fr_energy">   -186.88796033 </i>
    <i name="e_wo_entrp">   -186.55232686 </i>
    <i name="e_0_energy">   -186.72014359 </i>
   </energy>
  </scstep>
  <scstep>
   <time name="dav">   32.62   32.70</time>
   <time name="total">   33.15   33.24</time>
   <energy>
    <i name="e_fr_energy">   -186.86373309 </i>
    <i name="e_wo_entrp">   -186.52020360 </i>
    <i name="e_0_energy">   -186.69196834 </i>
   </energy>
  </scstep>
  <scstep>
   <time name="dav">   30.94   31.01</time>
   <time name="total">   31.47   31.56</time>
   <energy>
    <i name="e_fr_energy">   -186.83980102 </i>
    <i name="e_wo_entrp">   -186.49338808 </i>
    <i name="e_0_energy">   -186.66659455 </i>
   </energy>
  </scstep>
  <scstep>
   <time name="dav">   29.68   29.75</time>
   <time name="total">   30.21   30.30</time>
   <energy>
    <i name="e_fr_energy">   -186.83300568 </i>
    <i name="e_wo_entrp">   -186.48654924 </i>
    <i name="e_0_energy">   -186.65977746 </i>
   </energy>
  </scstep>
  <scstep>
   <time name="dav">   31.65   31.73</time>
   <time name="total">   32.19   32.27</time>
   <energy>
    <i name="e_fr_energy">   -186.83130472 </i>
    <i name="e_wo_entrp">   -186.48688186 </i>
    <i name="e_0_energy">   -186.65909329 </i>
   </energy>
  </scstep>
  <scstep>
   <time name="dav">   29.90   29.97</time>
   <time name="total">   30.44   30.52</time>
   <energy>
    <i name="e_fr_energy">   -186.83052454 </i>
    <i name="e_wo_entrp">   -186.48618845 </i>
    <i name="e_0_energy">   -186.65835649 </i>
   </energy>
  </scstep>
  <scstep>
   <time name="dav">   28.17   28.23</time>
   <time name="total">   28.70   28.78</time>
   <energy>
    <i name="e_fr_energy">   -186.83013956 </i>
    <i name="e_wo_entrp">   -186.48527501 </i>
    <i name="e_0_energy">   -186.65770728 </i>
   </energy>
  </scstep>
  <scstep>
   <time name="dav">   23.87   23.93</time>
   <time name="total">   24.41   24.47</time>
   <energy>
    <i name="e_fr_energy">   -186.83092301 </i>
    <i name="e_wo_entrp">   -186.48635851 </i>
    <i name="e_0_energy">   -186.65864076 </i>
   </energy>
  </scstep>
  <scstep>
   <time name="dav">   22.05   22.10</time>
   <time name="total">   22.58   22.64</time>
   <energy>
    <i name="e_fr_energy">   -186.83153225 </i>
    <i name="e_wo_entrp">   -186.48702533 </i>
    <i name="e_0_energy">   -186.65927879 </i>
   </energy>
  </scstep>
  <scstep>
   <time name="dav">   20.55   20.60</time>
   <time name="total">   21.09   21.15</time>
   <energy>
    <i name="e_fr_energy">   -186.83263306 </i>
    <i name="e_wo_entrp">   -186.48798563 </i>
    <i name="e_0_energy">   -186.66030935 </i>
   </energy>
  </scstep>
  <scstep>
   <time name="dav">   20.40   20.45</time>
   <time name="total">   20.94   20.99</time>
   <energy>
    <i name="e_fr_energy">   -186.83386238 </i>
    <i name="e_wo_entrp">   -186.48932392 </i>
    <i name="e_0_energy">   -186.66159315 </i>
   </energy>
  </scstep>
  <scstep>
   <time name="dav">   19.15   19.19</time>
   <time name="total">   19.68   19.74</time>
   <energy>
    <i name="e_fr_energy">   -186.83445729 </i>
    <i name="e_wo_entrp">   -186.48989379 </i>
    <i name="e_0_energy">   -186.66217554 </i>
   </energy>
  </scstep>
  <scstep>
   <time name="dav">   16.44   16.48</time>
   <time name="total">   16.97   17.02</time>
   <energy>
    <i name="e_fr_energy">   -186.83481251 </i>
    <i name="e_wo_entrp">   -186.49021499 </i>
    <i name="e_0_energy">   -186.66251375 </i>
   </energy>
  </scstep>
  <scstep>
   <time name="dav">   19.13   19.18</time>
   <time name="total">   19.67   19.72</time>
   <energy>
    <i name="e_fr_energy">   -186.83505702 </i>
    <i name="e_wo_entrp">   -186.49047648 </i>
    <i name="e_0_energy">   -186.66276675 </i>
   </energy>
  </scstep>
  <scstep>
   <time name="dav">   20.04   20.09</time>
   <time name="total">   20.08   20.13</time>
   <energy>
    <i name="alphaZ">     81.65567618 </i>
    <i name="ewald">  41890.23011097 </i>
    <i name="hartreedc"> -47832.84058602 </i>
    <i name="XCdc">   -231.61125443 </i>
    <i name="pawpsdc">   4192.05504964 </i>
    <i name="pawaedc">  -3610.05682160 </i>
    <i name="eentropy">     -0.34458457 </i>
    <i name="bandstr">  -1437.36526959 </i>
    <i name="atom">   6761.44252427 </i>
    <i name="e_fr_energy">   -186.83515514 </i>
    <i name="e_wo_entrp">   -186.49057057 </i>
    <i name="e_0_energy">   -186.66286285 </i>
   </energy>
  </scstep>
  <structure>
   <crystal>
    <varray name="basis" >
     <v>       8.66999996       5.03999989       0.00000000 </v>
     <v>      -8.66999982       5.04000013       0.00000000 </v>
     <v>       0.00000000       0.00000000      30.00000000 </v>
    </varray>
    <i name="volume">   2621.80797419 </i>
    <varray name="rec_basis" >
     <v>       0.05767013       0.09920635       0.00000000 </v>
     <v>      -0.05767013       0.09920635       0.00000000 </v>
     <v>       0.00000000       0.00000000       0.03333333 </v>
    </varray>
   </crystal>
   <varray name="positions" >
    <v>       0.33333334       0.33333334       0.00000000 </v>
    <v>       0.33333334       0.00000000       0.00000000 </v>
    <v>       0.00000000       0.66666669       0.00000000 </v>
    <v>       0.66666669       0.33333334       0.00000000 </v>
    <v>       0.66666669       0.66666669       0.00000000 </v>
    <v>       0.33333334       0.66666669       0.00000000 </v>
    <v>       0.00000000       0.00000000       0.00000000 </v>
    <v>       1.00000000       0.33333334       0.00000000 </v>
    <v>       0.66666669       0.00000000       0.00000000 </v>
    <v>       0.11068511       0.22244981       0.95539999 </v>
    <v>       0.22244981       0.11068511       0.04460000 </v>
    <v>       0.11068511       0.55578315       0.95539999 </v>
    <v>       0.22244981       0.44401845       0.04460000 </v>
    <v>       0.11068511       0.88911647       0.95539999 </v>
    <v>       0.22244981       0.77735180       0.04460000 </v>
    <v>       0.44401845       0.22244981       0.95539999 </v>
    <v>       0.55578315       0.11068511       0.04460000 </v>
    <v>       0.44401845       0.55578315       0.95539999 </v>
    <v>       0.55578315       0.44401845       0.04460000 </v>
    <v>       0.44401845       0.88911647       0.95539999 </v>
    <v>       0.55578315       0.77735180       0.04460000 </v>
    <v>       0.77735180       0.22244981       0.95539999 </v>
    <v>       0.88911647       0.11068511       0.04460000 </v>
    <v>       0.77735180       0.55578315       0.95539999 </v>
    <v>       0.88911647       0.44401845       0.04460000 </v>
    <v>       0.77735180       0.88911647       0.95539999 </v>
    <v>       0.88911647       0.77735180       0.04460000 </v>
   </varray>
  </structure>
  <varray name="forces" >
   <v>       0.08718293       0.44567016      -0.11801768 </v>
   <v>       0.13515221       0.06638025       0.02671626 </v>
   <v>       0.00164495      -0.16074737       0.12259272 </v>
   <v>      -0.30237295       0.11602057      -0.07139987 </v>
   <v>       0.01836279      -0.29318983      -0.14398030 </v>
   <v>       0.19221256       0.12720568       0.06970751 </v>
   <v>       0.13598237      -0.23575303       0.01323037 </v>
   <v>      -0.27573475       0.19741557       0.11941673 </v>
   <v>      -0.03874134      -0.34532837       0.00471911 </v>
   <v>       0.49012814       0.59229253      -2.15666370 </v>
   <v>       0.23526435       0.51983318       1.39247016 </v>
   <v>      -0.65595119      -0.13502405      -2.11197474 </v>
   <v>       0.65289152      -0.16123424       2.09454436 </v>
   <v>       0.73750156       0.00183069      -1.46363014 </v>
   <v>      -0.89851727      -0.01440697       1.44098779 </v>
   <v>      -0.34450414      -0.66030984      -1.42857661 </v>
   <v>      -0.35726757      -0.68684526       2.15185160 </v>
   <v>       0.54665178      -0.70737839      -2.19646076 </v>
   <v>      -0.51257306      -0.69935464       2.17724036 </v>
   <v>      -0.65519927       0.16646728      -2.13881299 </v>
   <v>      -0.21894707       0.16954862       2.88487704 </v>
   <v>       0.28296556      -0.02101794      -2.85476914 </v>
   <v>      -0.15448440       0.01146558       2.92837787 </v>
   <v>       0.50830882       0.68873943      -2.14867876 </v>
   <v>      -0.35820902       0.73042558       2.20902336 </v>
   <v>       0.05259883       0.12062902      -2.91875542 </v>
   <v>       0.69565364       0.16666579       2.11596485 </v>
  </varray>
  <varray name="stress" >
   <v>       7.30075710       0.03593358      -1.53300700 </v>
   <v>       0.03593358       4.44068608      -0.00831825 </v>
   <v>      -1.53300720      -0.00831823      30.32680627 </v>
  </varray>
  <energy>
   <i name="e_fr_energy">   -186.83515514 </i>
   <i name="e_wo_entrp">   -186.66286285 </i>
   <i name="e_0_energy">     -0.34458457 </i>
  </energy>
  <time name="totalsc">  789.22  791.34</time>
 </calculation>
 <calculation>
  <scstep>
   <time name="dav">   21.85   21.90</time>
   <time name="total">   22.39   22.44</time>
   <energy>
    <i name="alphaZ">     78.92429744 </i>
    <i name="ewald">  39380.89942097 </i>
    <i name="hartreedc"> -45338.33133967 </i>
    <i name="XCdc">   -239.06902215 </i>
    <i name="pawpsdc">   4192.02947245 </i>
    <i name="pawaedc">  -3610.03154300 </i>
    <i name="eentropy">     -0.28630993 </i>
    <i name="bandstr">  -1413.02798890 </i>
    <i name="atom">   6761.44252427 </i>
    <i name="e_fr_energy">   -187.45048851 </i>
    <i name="e_wo_entrp">   -187.16417858 </i>
    <i name="e_0_energy">   -187.30733354 </i>
   </energy>
  </scstep>
  <scstep>
   <time name="dav">   30.44   30.51</time>
   <time name="total">   30.97   31.06</time>
   <energy>
    <i name="e_fr_energy">   -189.25558887 </i>
    <i name="e_wo_entrp">   -188.94112301 </i>
    <i name="e_0_energy">   -189.09835594 </i>
   </energy>
  </scstep>
  <scstep>
   <time name="dav">   30.72   30.79</time>
   <time name="total">   31.26   31.35</time>
   <energy>
    <i name="e_fr_energy">   -189.35703946 </i>
    <i name="e_wo_entrp">   -189.07918086 </i>
    <i name="e_0_energy">   -189.21811016 </i>
   </energy>
  </scstep>
  <scstep>
   <time name="dav">   31.35   31.43</time>
   <time name="total">   31.89   31.97</time>
   <energy>
    <i name="e_fr_energy">   -188.72109127 </i>
    <i name="e_wo_entrp">   -188.43500916 </i>
    <i name="e_0_energy">   -188.57805022 </i>
   </energy>
  </scstep>
  <scstep>
   <time name="dav">   27.49   27.56</time>
   <time name="total">   28.03   28.11</time>
   <energy>
    <i name="e_fr_energy">   -188.72825792 </i>
    <i name="e_wo_entrp">   -188.44120620 </i>
    <i name="e_0_energy">   -188.58473206 </i>
   </energy>
  </scstep>
  <scstep>
   <time name="dav">   28.27   28.34</time>
   <time name="total">   28.81   28.88</time>
   <energy>
    <i name="e_fr_energy">   -188.64939715 </i>
    <i name="e_wo_entrp">   -188.36407421 </i>
    <i name="e_0_energy">   -188.50673568 </i>
   </energy>
  </scstep>
  <scstep>
   <time name="dav">   29.96   30.03</time>
   <time name="total">   30.50   30.58</time>
   <energy>
    <i name="e_fr_energy">   -188.65295893 </i>
    <i name="e_wo_entrp">   -188.36539821 </i>
    <i name="e_0_energy">   -188.50917857 </i>
   </energy>
  </scstep>
  <scstep>
   <time name="dav">   33.05   33.13</time>
   <time name="total">   33.59   33.68</time>
   <energy>
    <i name="e_fr_energy">   -188.63037196 </i>
    <i name="e_wo_entrp">   -188.34586667 </i>
    <i name="e_0_energy">   -188.48811931 </i>
   </energy>
  </scstep>
  <scstep>
   <time name="dav">   29.45   29.53</time>
   <time name="total">   29.99   30.07</time>
   <energy>
    <i name="e_fr_energy">   -188.62687470 </i>
    <i name="e_wo_entrp">   -188.34209817 </i>
    <i name="e_0_energy">   -188.48448644 </i>
   </energy>
  </scstep>
  <scstep>
   <time name="dav">   32.70   32.78</time>
   <time name="total">   33.24   33.33</time>
   <energy>
    <i name="e_fr_energy">   -188.62796216 </i>
    <i name="e_wo_entrp">   -188.34362339 </i>
    <i name="e_0_energy">   -188.48579278 </i>
   </energy>
  </scstep>
  <scstep>
   <time name="dav">   31.25   31.32</time>
   <time name="total">   31.79   31.87</time>
   <energy>
    <i name="e_fr_energy">   -188.62642738 </i>
    <i name="e_wo_entrp">   -188.34212211 </i>
    <i name="e_0_energy">   -188.48427475 </i>
   </energy>
  </scstep>
  <scstep>
   <time name="dav">   29.30   29.37</time>
   <time name="total">   29.34   29.42</time>
   <energy>
    <i name="alphaZ">     78.92429744 </i>
    <i name="ewald">  39380.89942097 </i>
    <i name="hartreedc"> -45349.39967856 </i>
    <i name="XCdc">   -237.97615988 </i>
    <i name="pawpsdc">   3952.87650093 </i>
    <i name="pawaedc">  -3367.40790072 </i>
    <i name="eentropy">     -0.28383517 </i>
    <i name="bandstr">  -1407.70152286 </i>
    <i name="atom">   6761.44252427 </i>
    <i name="e_fr_energy">   -188.62635357 </i>
    <i name="e_wo_entrp">   -188.34251840 </i>
    <i name="e_0_energy">   -188.48443598 </i>
   </energy>
  </scstep>
  <structure>
   <crystal>
    <varray name="basis" >
     <v>       8.85560319       5.10635006       0.00000000 </v>
     <v>      -8.85454399       5.10452847       0.00000000 </v>
     <v>       0.00000000       0.00000000      30.00000000 </v>
    </varray>
    <i name="volume">   2712.54239685 </i>
    <varray name="rec_basis" >
     <v>       0.05645473       0.09792891       0.00000000 </v>
     <v>      -0.05647488       0.09794062       0.00000000 </v>
     <v>       0.00000000       0.00000000       0.03333333 </v>
    </varray>
   </crystal>
   <varray name="positions" >
    <v>       0.33570887       0.33522375      -0.00018978 </v>
    <v>       0.33402705      -0.00005832       0.00004296 </v>
    <v>      -0.00076476       0.66589278       0.00019714 </v>
    <v>       0.66638071       0.33472986      -0.00011482 </v>
    <v>       0.66531457       0.66521240      -0.00023153 </v>
    <v>       0.33447691       0.66674072       0.00011210 </v>
    <v>      -0.00074998      -0.00150663       0.00002128 </v>
    <v>       1.00017769       0.33504531       0.00019203 </v>
    <v>       0.66490617      -0.00154495       0.00000759 </v>
    <v>       0.11488342       0.22392089       0.95193188 </v>
    <v>       0.22559226       0.11251848       0.04683921 </v>
    <v>       0.10821393       0.55696189       0.95200375 </v>
    <v>       0.22349459       0.44143034       0.04796821 </v>
    <v>       0.11274572       0.88707338       0.95304634 </v>
    <v>       0.21988104       0.77978266       0.04691723 </v>
    <v>       0.43989976       0.22024805       0.95310271 </v>
    <v>       0.55150195       0.10839186       0.04806037 </v>
    <v>       0.44215383       0.55087678       0.95186789 </v>
    <v>       0.55101000       0.44209742       0.04810119 </v>
    <v>       0.44299229       0.89173604       0.95196059 </v>
    <v>       0.55598546       0.77877240       0.04923914 </v>
    <v>       0.77803846       0.22156196       0.95080927 </v>
    <v>       0.88874154       0.11116978       0.04930909 </v>
    <v>       0.78206228       0.55766525       0.95194472 </v>
    <v>       0.89161567       0.44851085       0.04815230 </v>
    <v>       0.77807546       0.88954746       0.95070637 </v>
    <v>       0.89184954       0.77621404       0.04800266 </v>
   </varray>
  </structure>
  <varray name="forces" >
   <v>       0.03365413       0.44262080      -0.04522165 </v>
   <v>       0.17112454       0.08487682       0.09113244 </v>
   <v>       0.04773400      -0.21080997       0.03889309 </v>
   <v>      -0.12391316       0.20260727      -0.08580381 </v>
   <v>      -0.15259952      -0.19501068      -0.04515353 </v>
   <v>       0.28911001       0.23325662       0.07474553 </v>
   <v>      -0.15561510      -0.30030841       0.01015754 </v>
   <v>      -0.23816117       0.04321466      -0.04916105 </v>
   <v>       0.13530597      -0.25561816       0.01053272 </v>
   <v>      -0.04897005      -0.05511905       0.22161199 </v>
   <v>      -0.06010072      -0.07413354      -0.22508900 </v>
   <v>       0.01534529      -0.08814216       0.05292941 </v>
   <v>      -0.00003612      -0.11502351      -0.01402852 </v>
   <v>      -0.09394921      -0.00282514       0.15749998 </v>
   <v>      -0.02927007       0.00643387      -0.12504169 </v>
   <v>      -0.01788384      -0.04277272       0.02875998 </v>
   <v>       0.08924666      -0.05132081      -0.05278597 </v>
   <v>       0.03937005      -0.08234582      -0.20358876 </v>
   <v>      -0.02957142      -0.07757288       0.11606276 </v>
   <v>       0.01133580       0.08966832      -0.07316645 </v>
   <v>      -0.03316685       0.11005220       0.14184501 </v>
   <v>       0.12801434       0.00708516       0.10149993 </v>
   <v>      -0.00632097      -0.00463219      -0.10160649 </v>
   <v>       0.02907368       0.07854469      -0.08374119 </v>
   <v>       0.08358639       0.07717785       0.10361838 </v>
   <v>      -0.07302988       0.08640984      -0.04711977 </v>
   <v>      -0.01031277       0.09368695       0.00221911 </v>
  </varray>
  <varray name="stress" >
   <v>     -19.99855318      -0.01861761       0.01666246 </v>
   <v>      -0.01861765     -19.60334672      -0.02518177 </v>
   <v>       0.01666237      -0.02518161      -1.83739125 </v>
  </varray>
  <energy>
   <i name="e_fr_energy">   -188.62635357 </i>
   <i name="e_wo_entrp">   -188.48443598 </i>
   <i name="e_0_energy">     -0.28383517 </i>
  </energy>
  <time name="totalsc">  403.57  404.64</time>
 </calculation>
 <calculation>
  <scstep>
   <time name="dav">   24.15   24.20</time>
   <time name="total">   24.67   24.73</time>
   <energy>
    <i name="alphaZ">     82.35511454 </i>
    <i name="ewald">  41307.43010141 </i>
    <i name="hartreedc"> -47306.51424143 </i>
    <i name="XCdc">   -233.85052006 </i>
    <i name="pawpsdc">   3950.50831939 </i>
    <i name="pawaedc">  -3365.01248065 </i>
    <i name="eentropy">     -0.23582464 </i>
    <i name="bandstr">  -1386.66512902 </i>
    <i name="atom">   6761.44252427 </i>
    <i name="e_fr_energy">   -190.54213619 </i>
    <i name="e_wo_entrp">   -190.30631155 </i>
    <i name="e_0_energy">   -190.42422387 </i>
   </energy>
  </scstep>
  <scstep>
   <time name="dav">   28.52   28.58</time>
   <time name="total">   29.03   29.11</time>
   <energy>
    <i name="e_fr_energy">   -190.56131324 </i>
    <i name="e_wo_entrp">   -190.32337590 </i>
    <i name="e_0_energy">   -190.44234457 </i>
   </energy>
  </scstep>
  <scstep>
   <time name="dav">   30.46   30.53</time>
   <time name="total">   30.98   31.06</time>
   <energy>
    <i name="e_fr_energy">   -190.00785830 </i>
    <i name="e_wo_entrp">   -189.76050458 </i>
    <i name="e_0_energy">   -189.88418144 </i>
   </energy>
  </scstep>
  <scstep>
   <time name="dav">   31.30   31.38</time>
   <time name="total">   31.83   31.91</time>
   <energy>
    <i name="e_fr_energy">   -189.80800116 </i>
    <i name="e_wo_entrp">   -189.57192550 </i>
    <i name="e_0_energy">   -189.68996333 </i>
   </energy>
  </scstep>
  <scstep>
   <time name="dav">   28.47   28.54</time>
   <time name="total">   29.00   29.08</time>
   <energy>
    <i name="e_fr_energy">   -189.73215308 </i>
    <i name="e_wo_entrp">   -189.48967778 </i>
    <i name="e_0_energy">   -189.61091543 </i>
   </energy>
  </scstep>
  <scstep>
   <time name="dav">   29.71   29.79</time>
   <time name="total">   30.24   30.32</time>
   <energy>
    <i name="e_fr_energy">   -189.71171716 </i>
    <i name="e_wo_entrp">   -189.47339543 </i>
    <i name="e_0_energy">   -189.59255629 </i>
   </energy>
  </scstep>
  <scstep>
   <time name="dav">   31.08   31.16</time>
   <time name="total">   31.61   31.70</time>
   <energy>
    <i name="e_fr_energy">   -189.70384904 </i>
    <i name="e_wo_entrp">   -189.46499177 </i>
    <i name="e_0_energy">   -189.58442041 </i>
   </energy>
  </scstep>
  <scstep>
   <time name="dav">   27.87   27.94</time>
   <time name="total">   28.40   28.47</time>
   <energy>
    <i name="e_fr_energy">   -189.70389874 </i>
    <i name="e_wo_entrp">   -189.46527596 </i>
    <i name="e_0_energy">   -189.58458735 </i>
   </energy>
  </scstep>
  <scstep>
   <time name="dav">   27.35   27.42</time>
   <time name="total">   27.88   27.95</time>
   <energy>
    <i name="e_fr_energy">   -189.70416253 </i>
    <i name="e_wo_entrp">   -189.46531086 </i>
    <i name="e_0_energy">   -189.58473670 </i>
   </energy>
  </scstep>
  <scstep>
   <time name="dav">   26.72   26.78</time>
   <time name="total">   27.25   27.32</time>
   <energy>
    <i name="e_fr_energy">   -189.70443970 </i>
    <i name="e_wo_entrp">   -189.46568176 </i>
    <i name="e_0_energy">   -189.58506073 </i>
   </energy>
  </scstep>
  <scstep>
   <time name="dav">   24.73   24.79</time>
   <time name="total">   25.26   25.33</time>
   <energy>
    <i name="e_fr_energy">   -189.70392623 </i>
    <i name="e_wo_entrp">   -189.46508935 </i>
    <i name="e_0_energy">   -189.58450779 </i>
   </energy>
  </scstep>
  <scstep>
   <time name="dav">   17.94   17.98</time>
   <time name="total">   17.98   18.03</time>
   <energy>
    <i name="alphaZ">     82.35511454 </i>
    <i name="ewald">  41307.43010141 </i>
    <i name="hartreedc"> -47279.78008338 </i>
    <i name="XCdc">   -235.24782733 </i>
    <i name="pawpsdc">   4038.71164566 </i>
    <i name="pawaedc">  -3454.40956684 </i>
    <i name="eentropy">     -0.23874000 </i>
    <i name="bandstr">  -1409.96712042 </i>
    <i name="atom">   6761.44252427 </i>
    <i name="e_fr_energy">   -189.70395208 </i>
    <i name="e_wo_entrp">   -189.46521208 </i>
    <i name="e_0_energy">   -189.58458208 </i>
   </energy>
  </scstep>
  <structure>
   <crystal>
    <varray name="basis" >
     <v>       8.66722281       4.99975394       0.00000000 </v>
     <v>      -8.66638823       4.99832085       0.00000000 </v>
     <v>       0.00000000       0.00000000      30.00000000 </v>
    </varray>
    <i name="volume">   2599.54107450 </i>
    <varray name="rec_basis" >
     <v>       0.05768311       0.10001444       0.00000000 </v>
     <v>      -0.05769965       0.10002407       0.00000000 </v>
     <v>       0.00000000       0.00000000       0.03333333 </v>
    </varray>
   </crystal>
   <varray name="positions" >
    <v>       0.33647598       0.33592651      -0.00021534 </v>
    <v>       0.33433177      -0.00008123       0.00009447 </v>
    <v>      -0.00106908       0.66549702       0.00021912 </v>
    <v>       0.66659850       0.33518495      -0.00016331 </v>
    <v>       0.66484473       0.66503469      -0.00025705 </v>
    <v>       0.33514092       0.66685123       0.00015434 </v>
    <v>      -0.00139754      -0.00185630       0.00002702 </v>
    <v>       1.00002148       0.33534511       0.00016425 </v>
    <v>       0.66461127      -0.00209897       0.00001354 </v>
    <v>       0.11474504       0.22387626       0.95205713 </v>
    <v>       0.22541165       0.11245292       0.04671201 </v>
    <v>       0.10808227       0.55680084       0.95203366 </v>
    <v>       0.22330358       0.44123938       0.04796028 </v>
    <v>       0.11265110       0.88715865       0.95313535 </v>
    <v>       0.21986371       0.77982137       0.04684657 </v>
    <v>       0.43981163       0.22019415       0.95311897 </v>
    <v>       0.55150216       0.10822119       0.04803053 </v>
    <v>       0.44205479       0.55070235       0.95175283 </v>
    <v>       0.55085290       0.44199692       0.04816679 </v>
    <v>       0.44315202       0.89187409       0.95191924 </v>
    <v>       0.55613644       0.77898690       0.04931930 </v>
    <v>       0.77817275       0.22145115       0.95086663 </v>
    <v>       0.88872780       0.11116814       0.04925167 </v>
    <v>       0.78222052       0.55776784       0.95189740 </v>
    <v>       0.89182382       0.44855897       0.04821086 </v>
    <v>       0.77814903       0.88976087       0.95067974 </v>
    <v>       0.89199522       0.77637948       0.04800391 </v>
   </varray>
  </structure>
  <varray name="forces" >
   <v>       0.00657784       0.43521875      -0.01321072 </v>
   <v>       0.19299284       0.09486957       0.08629988 </v>
   <v>       0.05479329      -0.25405824       0.01140024 </v>
   <v>      -0.06205487       0.23122722      -0.05972153 </v>
   <v>      -0.20818816      -0.14291122      -0.00888375 </v>
   <v>       0.31383702       0.26069912       0.05243667 </v>
   <v>      -0.24629016      -0.32582910       0.00842961 </v>
   <v>      -0.22733215      -0.03175301      -0.07550518 </v>
   <v>       0.20276700      -0.20795736       0.00765556 </v>
   <v>       0.02712790       0.06760382      -0.26806151 </v>
   <v>       0.00967404       0.05863048       0.21287736 </v>
   <v>      -0.09895933       0.00301032      -0.43388739 </v>
   <v>       0.12181981      -0.04692969       0.48201541 </v>
   <v>       0.06684440      -0.00214831      -0.29098156 </v>
   <v>      -0.10425114       0.00643300       0.31427452 </v>
   <v>      -0.04995763      -0.11365924      -0.42046590 </v>
   <v>      -0.03464590      -0.09981090       0.43125460 </v>
   <v>       0.07397698      -0.14454536      -0.72013290 </v>
   <v>      -0.06569691      -0.13466920       0.59996246 </v>
   <v>      -0.10753284       0.00993842      -0.58021485 </v>
   <v>       0.02343209       0.04235264       0.70722999 </v>
   <v>       0.05434652      -0.00262616      -0.43755121 </v>
   <v>      -0.01702457      -0.00721062       0.46204555 </v>
   <v>       0.06034878       0.15609481      -0.57510055 </v>
   <v>      -0.04935836       0.13291596       0.62551108 </v>
   <v>      -0.03455257       0.01156660      -0.61887804 </v>
   <v>       0.09730604       0.00354771       0.50120215 </v>
  </varray>
  <varray name="stress" >
   <v>     -10.13482402      -0.01157333      -0.00541035 </v>
   <v>      -0.01157336      -9.82486008      -0.03226677 </v>
   <v>      -0.00541037      -0.03226676       6.51480746 </v>
  </varray>
  <energy>
   <i name="e_fr_energy">   -189.70395208 </i>
   <i name="e_wo_entrp">   -189.58458208 </i>
   <i name="e_0_energy">     -0.23874000 </i>
  </energy>
  <time name="totalsc">  376.00  377.00</time>
 </calculation>
 <calculation>
  <scstep>
   <time name="dav">   21.87   21.92</time>
   <time name="total">   22.39   22.44</time>
   <energy>
    <i name="alphaZ">     85.79564924 </i>
    <i name="ewald">  42818.97143368 </i>
    <i name="hartreedc"> -48835.50976898 </i>
    <i name="XCdc">   -232.99664775 </i>
    <i name="pawpsdc">   4038.78951927 </i>
    <i name="pawaedc">  -3454.48506839 </i>
    <i name="eentropy">     -0.19396381 </i>
    <i name="bandstr">  -1373.02246322 </i>
    <i name="atom">   6761.44252427 </i>
    <i name="e_fr_energy">   -191.20878569 </i>
    <i name="e_wo_entrp">   -191.01482188 </i>
    <i name="e_0_energy">   -191.11180379 </i>
   </energy>
  </scstep>
  <scstep>
   <time name="dav">   33.03   33.11</time>
   <time name="total">   33.54   33.63</time>
   <energy>
    <i name="e_fr_energy">   -191.15800677 </i>
    <i name="e_wo_entrp">   -190.95697011 </i>
    <i name="e_0_energy">   -191.05748844 </i>
   </energy>
  </scstep>
  <scstep>
   <time name="dav">   29.77   29.84</time>
   <time name="total">   30.28   30.36</time>
   <energy>
    <i name="e_fr_energy">   -191.07511274 </i>
    <i name="e_wo_entrp">   -190.86380229 </i>
    <i name="e_0_energy">   -190.96945751 </i>
   </energy>
  </scstep>
  <scstep>
   <time name="dav">   32.05   32.13</time>
   <time name="total">   32.56   32.65</time>
   <energy>
    <i name="e_fr_energy">   -190.75808928 </i>
    <i name="e_wo_entrp">   -190.55856886 </i>
    <i name="e_0_energy">   -190.65832907 </i>
   </energy>
  </scstep>
  <scstep>
   <time name="dav">   30.09   30.16</time>
   <time name="total">   30.61   30.69</time>
   <energy>
    <i name="e_fr_energy">   -190.74315865 </i>
    <i name="e_wo_entrp">   -190.54577525 </i>
    <i name="e_0_energy">   -190.64446695 </i>
   </energy>
  </scstep>
  <scstep>
   <time name="dav">   30.25   30.32</time>
   <time name="total">   30.76   30.84</time>
   <energy>
    <i name="e_fr_energy">   -190.63969394 </i>
    <i name="e_wo_entrp">   -190.43817302 </i>
    <i name="e_0_energy">   -190.53893348 </i>
   </energy>
  </scstep>
  <scstep>
   <time name="dav">   30.85   30.92</time>
   <time name="total">   31.37   31.45</time>
   <energy>
    <i name="e_fr_energy">   -190.63331484 </i>
    <i name="e_wo_entrp">   -190.43379735 </i>
    <i name="e_0_energy">   -190.53355609 </i>
   </energy>
  </scstep>
  <scstep>
   <time name="dav">   28.79   28.86</time>
   <time name="total">   29.31   29.38</time>
   <energy>
    <i name="e_fr_energy">   -190.63213296 </i>
    <i name="e_wo_entrp">   -190.43245012 </i>
    <i name="e_0_energy">   -190.53229154 </i>
   </energy>
  </scstep>
  <scstep>
   <time name="dav">   29.05   29.12</time>
   <time name="total">   29.56   29.64</time>
   <energy>
    <i name="e_fr_energy">   -190.62899271 </i>
    <i name="e_wo_entrp">   -190.42925517 </i>
    <i name="e_0_energy">   -190.52912394 </i>
   </energy>
  </scstep>
  <scstep>
   <time name="dav">   25.73   25.79</time>
   <time name="total">   26.25   26.32</time>
   <energy>
    <i name="e_fr_energy">   -190.62935632 </i>
    <i name="e_wo_entrp">   -190.42946590 </i>
    <i name="e_0_energy">   -190.52941111 </i>
   </energy>
  </scstep>
  <scstep>
   <time name="dav">   27.35   27.42</time>
   <time name="total">   27.87   27.95</time>
   <energy>
    <i name="e_fr_energy">   -190.62916047 </i>
    <i name="e_wo_entrp">   -190.42938425 </i>
    <i name="e_0_energy">   -190.52927236 </i>
   </energy>
  </scstep>
  <scstep>
   <time name="dav">   19.72   19.76</time>
   <time name="total">   19.75   19.81</time>
   <energy>
    <i name="alphaZ">     85.79564924 </i>
    <i name="ewald">  42818.97143368 </i>
    <i name="hartreedc"> -48807.20065150 </i>
    <i name="XCdc">   -234.32316271 </i>
    <i name="pawpsdc">   4062.11480032 </i>
    <i name="pawaedc">  -3477.96609477 </i>
    <i name="eentropy">     -0.19972840 </i>
    <i name="bandstr">  -1399.26393450 </i>
    <i name="atom">   6761.44252427 </i>
    <i name="e_fr_energy">   -190.62916438 </i>
    <i name="e_wo_entrp">   -190.42943598 </i>
    <i name="e_0_energy">   -190.52930018 </i>
   </energy>
  </scstep>
  <structure>
   <crystal>
    <varray name="basis" >
     <v>       8.48730484       4.90064810       0.00000000 </v>
     <v>      -8.48678621       4.89976109       0.00000000 </v>
     <v>       0.00000000       0.00000000      30.00000000 </v>
    </varray>
    <i name="volume">   2495.29556379 </i>
    <varray name="rec_basis" >
     <v>       0.05890798       0.10203344       0.00000000 </v>
     <v>      -0.05891865       0.10203967       0.00000000 </v>
     <v>       0.00000000       0.00000000       0.03333333 </v>
    </varray>
   </crystal>
   <varray name="positions" >
    <v>       0.33916115       0.33864172      -0.00021567 </v>
    <v>       0.33567556      -0.00019063       0.00026853 </v>
    <v>      -0.00255538       0.66359555       0.00021951 </v>
    <v>       0.66797809       0.33683552      -0.00026463 </v>
    <v>       0.66325159       0.66510039      -0.00024486 </v>
    <v>       0.33800310       0.66738125       0.00024380 </v>
    <v>      -0.00451240      -0.00293780       0.00004296 </v>
    <v>       0.99883415       0.33576523      -0.00001378 </v>
    <v>       0.66425694      -0.00410707       0.00002692 </v>
    <v>       0.11567694       0.22439574       0.95109169 </v>
    <v>       0.22624043       0.11301311       0.04752001 </v>
    <v>       0.10780697       0.55756468       0.95072834 </v>
    <v>       0.22379144       0.44050183       0.04937271 </v>
    <v>       0.11310939       0.88667672       0.95215728 </v>
    <v>       0.21942139       0.78034419       0.04786501 </v>
    <v>       0.43870073       0.21953466       0.95187299 </v>
    <v>       0.55045743       0.10777933       0.04932808 </v>
    <v>       0.44131404       0.54932968       0.94983164 </v>
    <v>       0.54958238       0.44130279       0.04981245 </v>
    <v>       0.44246008       0.89229604       0.95029485 </v>
    <v>       0.55639868       0.77891889       0.05125496 </v>
    <v>       0.77822314       0.22131992       0.94950979 </v>
    <v>       0.88859979       0.11119335       0.05067977 </v>
    <v>       0.78364925       0.55867257       0.95029677 </v>
    <v>       0.89242449       0.44989452       0.04994124 </v>
    <v>       0.77796657       0.88971770       0.94892109 </v>
    <v>       0.89229850       0.77567460       0.04945842 </v>
   </varray>
  </structure>
  <varray name="forces" >
   <v>      -0.00236866       0.41388722       0.04644920 </v>
   <v>       0.19768113       0.09421893       0.04742933 </v>
   <v>       0.06733264      -0.29236020      -0.04507134 </v>
   <v>      -0.01777153       0.27304044      -0.01101515 </v>
   <v>      -0.29347714      -0.06693925       0.02508898 </v>
   <v>       0.33855383       0.30753779      -0.00392756 </v>
   <v>      -0.27320406      -0.34563321       0.01103886 </v>
   <v>      -0.24757825      -0.10069635      -0.05505556 </v>
   <v>       0.30696369      -0.19413670       0.00342230 </v>
   <v>       0.02394439       0.03487944      -0.13143584 </v>
   <v>      -0.03132531       0.00945426       0.08425069 </v>
   <v>      -0.01790625       0.07440988      -0.22836344 </v>
   <v>       0.03731872       0.00405216       0.26912304 </v>
   <v>       0.01111372      -0.01971398      -0.15235639 </v>
   <v>       0.01704442      -0.00416144       0.23941887 </v>
   <v>      -0.00227185      -0.00672010      -0.32319831 </v>
   <v>      -0.01589186       0.00100176       0.26187751 </v>
   <v>       0.03579031      -0.02940738      -0.56298146 </v>
   <v>      -0.01592558      -0.02437471       0.39540858 </v>
   <v>      -0.01344301      -0.02056475      -0.38352148 </v>
   <v>       0.03533998      -0.01197608       0.54381526 </v>
   <v>      -0.01585058      -0.04784615      -0.28185388 </v>
   <v>      -0.06366276      -0.01901377       0.34274312 </v>
   <v>      -0.01783377       0.05975718      -0.40222144 </v>
   <v>      -0.05301741       0.04834794       0.48063470 </v>
   <v>      -0.00335493      -0.07997820      -0.49992242 </v>
   <v>       0.01380012      -0.05706471       0.33022385 </v>
  </varray>
  <varray name="stress" >
   <v>      -5.90347861       0.00696466      -0.06955528 </v>
   <v>       0.00696473      -5.90537838      -0.01545496 </v>
   <v>      -0.06955520      -0.01545477       4.45494579 </v>
  </varray>
  <energy>
   <i name="e_fr_energy">   -190.62916438 </i>
   <i name="e_wo_entrp">   -190.52930018 </i>
   <i name="e_0_energy">     -0.19972840 </i>
  </energy>
  <time name="totalsc">  386.08  387.11</time>
 </calculation>
 <calculation>
  <scstep>
   <time name="dav">   21.85   21.90</time>
   <time name="total">   22.36   22.41</time>
   <energy>
    <i name="alphaZ">     90.38649406 </i>
    <i name="ewald">  44760.02409551 </i>
    <i name="hartreedc"> -50806.35324902 </i>
    <i name="XCdc">   -231.68929078 </i>
    <i name="pawpsdc">   4062.06851208 </i>
    <i name="pawaedc">  -3477.91567429 </i>
    <i name="eentropy">     -0.17579331 </i>
    <i name="bandstr">  -1349.86863479 </i>
    <i name="atom">   6761.44252427 </i>
    <i name="e_fr_energy">   -192.08101626 </i>
    <i name="e_wo_entrp">   -191.90522295 </i>
    <i name="e_0_energy">   -191.99311961 </i>
   </energy>
  </scstep>
  <scstep>
   <time name="dav">   31.12   31.20</time>
   <time name="total">   31.62   31.71</time>
   <energy>
    <i name="e_fr_energy">   -191.88501662 </i>
    <i name="e_wo_entrp">   -191.69872322 </i>
    <i name="e_0_energy">   -191.79186992 </i>
   </energy>
  </scstep>
  <scstep>
   <time name="dav">   27.50   27.56</time>
   <time name="total">   28.00   28.07</time>
   <energy>
    <i name="e_fr_energy">   -192.17100044 </i>
    <i name="e_wo_entrp">   -191.96999889 </i>
    <i name="e_0_energy">   -192.07049967 </i>
   </energy>
  </scstep>
  <scstep>
   <time name="dav">   30.00   30.07</time>
   <time name="total">   30.50   30.58</time>
   <energy>
    <i name="e_fr_energy">   -191.53255652 </i>
    <i name="e_wo_entrp">   -191.34984008 </i>
    <i name="e_0_energy">   -191.44119830 </i>
   </energy>
  </scstep>
  <scstep>
   <time name="dav">   30.20   30.28</time>
   <time name="total">   30.71   30.79</time>
   <energy>
    <i name="e_fr_energy">   -191.45598028 </i>
    <i name="e_wo_entrp">   -191.27683373 </i>
    <i name="e_0_energy">   -191.36640700 </i>
   </energy>
  </scstep>
  <scstep>
   <time name="dav">   30.34   30.41</time>
   <time name="total">   30.84   30.92</time>
   <energy>
    <i name="e_fr_energy">   -191.26602512 </i>
    <i name="e_wo_entrp">   -191.08082374 </i>
    <i name="e_0_energy">   -191.17342443 </i>
   </energy>
  </scstep>
  <scstep>
   <time name="dav">   30.03   30.10</time>
   <time name="total">   30.53   30.61</time>
   <energy>
    <i name="e_fr_energy">   -191.25926837 </i>
    <i name="e_wo_entrp">   -191.07508048 </i>
    <i name="e_0_energy">   -191.16717443 </i>
   </energy>
  </scstep>
  <scstep>
   <time name="dav">   26.81   26.88</time>
   <time name="total">   27.31   27.39</time>
   <energy>
    <i name="e_fr_energy">   -191.25429972 </i>
    <i name="e_wo_entrp">   -191.07004189 </i>
    <i name="e_0_energy">   -191.16217081 </i>
   </energy>
  </scstep>
  <scstep>
   <time name="dav">   31.13   31.21</time>
   <time name="total">   31.64   31.72</time>
   <energy>
    <i name="e_fr_energy">   -191.25517170 </i>
    <i name="e_wo_entrp">   -191.07091478 </i>
    <i name="e_0_energy">   -191.16304324 </i>
   </energy>
  </scstep>
  <scstep>
   <time name="dav">   28.17   28.24</time>
   <time name="total">   28.68   28.75</time>
   <energy>
    <i name="e_fr_energy">   -191.25430880 </i>
    <i name="e_wo_entrp">   -191.07004208 </i>
    <i name="e_0_energy">   -191.16217544 </i>
   </energy>
  </scstep>
  <scstep>
   <time name="dav">   26.73   26.79</time>
   <time name="total">   26.77   26.84</time>
   <energy>
    <i name="alphaZ">     90.38649406 </i>
    <i name="ewald">  44760.02409551 </i>
    <i name="hartreedc"> -50769.97795622 </i>
    <i name="XCdc">   -233.33108743 </i>
    <i name="pawpsdc">   4083.43431230 </i>
    <i name="pawaedc">  -3499.35211710 </i>
    <i name="eentropy">     -0.18440692 </i>
    <i name="bandstr">  -1383.69607145 </i>
    <i name="atom">   6761.44252427 </i>
    <i name="e_fr_energy">   -191.25421296 </i>
    <i name="e_wo_entrp">   -191.06980605 </i>
    <i name="e_0_energy">   -191.16200951 </i>
   </energy>
  </scstep>
  <structure>
   <crystal>
    <varray name="basis" >
     <v>       8.26890308       4.77514610       0.00000000 </v>
     <v>      -8.26792637       4.77346524       0.00000000 </v>
     <v>       0.00000000       0.00000000      30.00000000 </v>
    </varray>
    <i name="volume">   2368.55633308 </i>
    <varray name="rec_basis" >
     <v>       0.06046044       0.10472109       0.00000000 </v>
     <v>      -0.06048173       0.10473346       0.00000000 </v>
     <v>       0.00000000       0.00000000       0.03333333 </v>
    </varray>
   </crystal>
   <varray name="positions" >
    <v>       0.34437924       0.34397160      -0.00002365 </v>
    <v>       0.33838788      -0.00044585       0.00048170 </v>
    <v>      -0.00584104       0.65932224       0.00003608 </v>
    <v>       0.67139468       0.34038580      -0.00031057 </v>
    <v>       0.66026236       0.66644005      -0.00012252 </v>
    <v>       0.34441435       0.66878845       0.00023604 </v>
    <v>      -0.01108278      -0.00523670       0.00008543 </v>
    <v>       0.99567055       0.33615555      -0.00028042 </v>
    <v>       0.66417558      -0.00871887       0.00004049 </v>
    <v>       0.11686152       0.22495640       0.94996522 </v>
    <v>       0.22678266       0.11368835       0.04839321 </v>
    <v>       0.10849166       0.55907530       0.94916488 </v>
    <v>       0.22453259       0.44009895       0.05111861 </v>
    <v>       0.11331046       0.88603990       0.95098560 </v>
    <v>       0.21925878       0.78043803       0.04935207 </v>
    <v>       0.43809301       0.21916846       0.95001622 </v>
    <v>       0.54979507       0.10782137       0.05100723 </v>
    <v>       0.44091239       0.54820486       0.94687887 </v>
    <v>       0.54867698       0.44085762       0.05206411 </v>
    <v>       0.44160882       0.89224732       0.94807292 </v>
    <v>       0.55648210       0.77830968       0.05418231 </v>
    <v>       0.77749009       0.22093584       0.94769876 </v>
    <v>       0.88793215       0.11140337       0.05274799 </v>
    <v>       0.78481442       0.55983267       0.94802693 </v>
    <v>       0.89273763       0.45144344       0.05255166 </v>
    <v>       0.77689416       0.88862262       0.94619380 </v>
    <v>       0.89177913       0.77440801       0.05143692 </v>
   </varray>
  </structure>
  <varray name="forces" >
   <v>       0.07673516       0.33008471      -0.00975274 </v>
   <v>       0.14994230       0.09120115       0.02781126 </v>
   <v>       0.05689833      -0.26583842      -0.02438483 </v>
   <v>       0.02084179       0.22014974      -0.01359268 </v>
   <v>      -0.23263510       0.08845273      -0.00711466 </v>
   <v>       0.18528592       0.25126649      -0.03217160 </v>
   <v>      -0.20361195      -0.30994000       0.01309538 </v>
   <v>      -0.24296117      -0.21705507       0.01927969 </v>
   <v>       0.31803701      -0.11536543       0.02644240 </v>
   <v>      -0.02883262      -0.03199192       0.16116444 </v>
   <v>      -0.09824739      -0.06051258      -0.18509492 </v>
   <v>       0.09259873       0.11397533       0.07527723 </v>
   <v>      -0.07758725       0.03322478      -0.10491705 </v>
   <v>      -0.07510616      -0.05493428       0.10649258 </v>
   <v>       0.16315634      -0.03801360      -0.05837847 </v>
   <v>       0.02450014       0.11145778      -0.01716594 </v>
   <v>       0.10165809       0.11704593      -0.05170099 </v>
   <v>       0.00008656       0.08708330      -0.16208866 </v>
   <v>       0.02799022       0.12014387       0.09827633 </v>
   <v>       0.10775201       0.00897555      -0.07638988 </v>
   <v>       0.02100842      -0.02016742       0.25245678 </v>
   <v>      -0.06222147      -0.13691619      -0.02796336 </v>
   <v>      -0.10919715      -0.04258285       0.12555004 </v>
   <v>      -0.12866442      -0.03916588      -0.06987206 </v>
   <v>      -0.00627776      -0.02229666       0.17071594 </v>
   <v>      -0.00212445      -0.13766409      -0.26402321 </v>
   <v>      -0.07902414      -0.08061694       0.02804899 </v>
  </varray>
  <varray name="stress" >
   <v>      -0.03410965       0.10930440       0.01661971 </v>
   <v>       0.10930452      -0.13617786       0.09836276 </v>
   <v>       0.01661975       0.09836258      -0.44484250 </v>
  </varray>
  <energy>
   <i name="e_fr_energy">   -191.25421296 </i>
   <i name="e_wo_entrp">   -191.16200951 </i>
   <i name="e_0_energy">     -0.18440692 </i>
  </energy>
  <time name="totalsc">  360.55  361.50</time>
 </calculation>
 <calculation>
  <scstep>
   <time name="dav">   21.77   21.82</time>
   <time name="total">   22.27   22.33</time>
   <energy>
    <i name="alphaZ">     90.44205848 </i>
    <i name="ewald">  44770.78516350 </i>
    <i name="hartreedc"> -50782.03178182 </i>
    <i name="XCdc">   -233.35521634 </i>
    <i name="pawpsdc">   4083.89359401 </i>
    <i name="pawaedc">  -3499.80912122 </i>
    <i name="eentropy">     -0.18965531 </i>
    <i name="bandstr">  -1382.49220738 </i>
    <i name="atom">   6761.44252427 </i>
    <i name="e_fr_energy">   -191.31464182 </i>
    <i name="e_wo_entrp">   -191.12498651 </i>
    <i name="e_0_energy">   -191.21981416 </i>
   </energy>
  </scstep>
  <scstep>
   <time name="dav">   32.87   32.95</time>
   <time name="total">   33.37   33.46</time>
   <energy>
    <i name="e_fr_energy">   -191.37145666 </i>
    <i name="e_wo_entrp">   -191.17430329 </i>
    <i name="e_0_energy">   -191.27287998 </i>
   </energy>
  </scstep>
  <scstep>
   <time name="dav">   29.30   29.37</time>
   <time name="total">   29.81   29.89</time>
   <energy>
    <i name="e_fr_energy">   -191.32432141 </i>
    <i name="e_wo_entrp">   -191.13387107 </i>
    <i name="e_0_energy">   -191.22909624 </i>
   </energy>
  </scstep>
  <scstep>
   <time name="dav">   28.58   28.65</time>
   <time name="total">   29.08   29.16</time>
   <energy>
    <i name="e_fr_energy">   -191.32401039 </i>
    <i name="e_wo_entrp">   -191.13369476 </i>
    <i name="e_0_energy">   -191.22885257 </i>
   </energy>
  </scstep>
  <scstep>
   <time name="dav">   28.47   28.54</time>
   <time name="total">   28.97   29.05</time>
   <energy>
    <i name="e_fr_energy">   -191.32112184 </i>
    <i name="e_wo_entrp">   -191.13015545 </i>
    <i name="e_0_energy">   -191.22563864 </i>
   </energy>
  </scstep>
  <scstep>
   <time name="dav">   27.85   27.91</time>
   <time name="total">   28.35   28.43</time>
   <energy>
    <i name="e_fr_energy">   -191.32063762 </i>
    <i name="e_wo_entrp">   -191.12968892 </i>
    <i name="e_0_energy">   -191.22516327 </i>
   </energy>
  </scstep>
  <scstep>
   <time name="dav">   29.03   29.10</time>
   <time name="total">   29.53   29.61</time>
   <energy>
    <i name="e_fr_energy">   -191.32098932 </i>
    <i name="e_wo_entrp">   -191.13000419 </i>
    <i name="e_0_energy">   -191.22549676 </i>
   </energy>
  </scstep>
  <scstep>
   <time name="dav">   24.89   24.95</time>
   <time name="total">   25.39   25.46</time>
   <energy>
    <i name="e_fr_energy">   -191.32050375 </i>
    <i name="e_wo_entrp">   -191.12951184 </i>
    <i name="e_0_energy">   -191.22500779 </i>
   </energy>
  </scstep>
  <scstep>
   <time name="dav">   17.79   17.84</time>
   <time name="total">   17.83   17.88</time>
   <energy>
    <i name="alphaZ">     90.44205848 </i>
    <i name="ewald">  44770.78516350 </i>
    <i name="hartreedc"> -50782.60104285 </i>
    <i name="XCdc">   -233.35670559 </i>
    <i name="pawpsdc">   4082.70003811 </i>
    <i name="pawaedc">  -3498.58922924 </i>
    <i name="eentropy">     -0.19095760 </i>
    <i name="bandstr">  -1381.95231560 </i>
    <i name="atom">   6761.44252427 </i>
    <i name="e_fr_energy">   -191.32046651 </i>
    <i name="e_wo_entrp">   -191.12950892 </i>
    <i name="e_0_energy">   -191.22498771 </i>
   </energy>
  </scstep>
  <structure>
   <crystal>
    <varray name="basis" >
     <v>       8.26887598       4.77544128       0.00000000 </v>
     <v>      -8.26511693       4.76894224       0.00000000 </v>
     <v>       0.00000000       0.00000000      30.00000000 </v>
    </varray>
    <i name="volume">   2367.10117546 </i>
    <varray name="rec_basis" >
     <v>       0.06044028       0.10474986       0.00000000 </v>
     <v>      -0.06052265       0.10479750       0.00000000 </v>
     <v>       0.00000000       0.00000000       0.03333333 </v>
    </varray>
   </crystal>
   <varray name="positions" >
    <v>       0.34631344       0.34545534      -0.00003847 </v>
    <v>       0.33930776      -0.00042367       0.00052796 </v>
    <v>      -0.00704518       0.65777806      -0.00000440 </v>
    <v>       0.67259544       0.34146434      -0.00033285 </v>
    <v>       0.66001335       0.66758227      -0.00013337 </v>
    <v>       0.34627260       0.66953072       0.00018386 </v>
    <v>      -0.01329517      -0.00622837       0.00010687 </v>
    <v>       0.99383356       0.33576604      -0.00025065 </v>
    <v>       0.66452331      -0.01026591       0.00008344 </v>
    <v>       0.11662169       0.22488208       0.95021886 </v>
    <v>       0.22619032       0.11367366       0.04809927 </v>
    <v>       0.10934779       0.55939278       0.94927687 </v>
    <v>       0.22447883       0.44049386       0.05095954 </v>
    <v>       0.11281192       0.88597671       0.95115048 </v>
    <v>       0.21954341       0.77976564       0.04926669 </v>
    <v>       0.43872812       0.21966141       0.94997711 </v>
    <v>       0.55068514       0.10811856       0.05093399 </v>
    <v>       0.44135328       0.54864091       0.94659877 </v>
    <v>       0.54936516       0.44138430       0.05223709 </v>
    <v>       0.44196548       0.89197612       0.94793552 </v>
    <v>       0.55644150       0.77814132       0.05460900 </v>
    <v>       0.77660574       0.22041968       0.94764197 </v>
    <v>       0.88739071       0.11150873       0.05296437 </v>
    <v>       0.78424421       0.56001856       0.94789995 </v>
    <v>       0.89260747       0.45135808       0.05284398 </v>
    <v>       0.77618094       0.88792146       0.94574945 </v>
    <v>       0.89113364       0.77422179       0.05149460 </v>
   </varray>
  </structure>
  <varray name="forces" >
   <v>       0.13757736       0.35225373       0.01038786 </v>
   <v>       0.15099592       0.10158933       0.05439367 </v>
   <v>       0.06209648      -0.25583057      -0.03438494 </v>
   <v>      -0.00862367       0.22559794      -0.00074848 </v>
   <v>      -0.21453496       0.07865321       0.02345876 </v>
   <v>       0.17504278       0.29382463      -0.00324052 </v>
   <v>      -0.21471980      -0.33519878      -0.00676388 </v>
   <v>      -0.27620659      -0.25774832      -0.02543922 </v>
   <v>       0.31813835      -0.11798424       0.02126452 </v>
   <v>      -0.03601007      -0.02755480       0.19827822 </v>
   <v>      -0.08346857      -0.04878361      -0.21627172 </v>
   <v>       0.06524258       0.05981705       0.10570442 </v>
   <v>      -0.05028515       0.00016681      -0.14948230 </v>
   <v>      -0.06039831      -0.04656431       0.13228086 </v>
   <v>       0.10626960      -0.03637649      -0.09800064 </v>
   <v>       0.00958376       0.08055223      -0.00806138 </v>
   <v>       0.08410710       0.08749405      -0.07105215 </v>
   <v>       0.00927510       0.06279040      -0.14307657 </v>
   <v>       0.01425782       0.09391103       0.05918724 </v>
   <v>       0.07367592       0.02251429      -0.07085230 </v>
   <v>       0.02038754      -0.00900492       0.20714663 </v>
   <v>      -0.04278765      -0.11810695      -0.01153231 </v>
   <v>      -0.07270210      -0.03808793       0.11441269 </v>
   <v>      -0.09312963      -0.01024595      -0.06051969 </v>
   <v>      -0.01774930      -0.01274938       0.17034957 </v>
   <v>      -0.00778751      -0.08917159      -0.23600540 </v>
   <v>      -0.04824700      -0.05575686       0.03856706 </v>
  </varray>
  <varray name="stress" >
   <v>       0.03164136       0.03062599       0.03870130 </v>
   <v>       0.03062607       0.01370685       0.05474997 </v>
   <v>       0.03870162       0.05474983      -1.01627987 </v>
  </varray>
  <energy>
   <i name="e_fr_energy">   -191.32046651 </i>
   <i name="e_wo_entrp">   -191.22498771 </i>
   <i name="e_0_energy">     -0.19095760 </i>
  </energy>
  <time name="totalsc">  286.47  287.23</time>
 </calculation>
 <calculation>
  <scstep>
   <time name="dav">   21.76   21.82</time>
   <time name="total">   22.27   22.33</time>
   <energy>
    <i name="alphaZ">     90.42798244 </i>
    <i name="ewald">  44761.86354823 </i>
    <i name="hartreedc"> -50773.65128711 </i>
    <i name="XCdc">   -233.37701046 </i>
    <i name="pawpsdc">   4082.69952272 </i>
    <i name="pawaedc">  -3498.58898782 </i>
    <i name="eentropy">     -0.19377555 </i>
    <i name="bandstr">  -1381.98331792 </i>
    <i name="atom">   6761.44252427 </i>
    <i name="e_fr_energy">   -191.36080119 </i>
    <i name="e_wo_entrp">   -191.16702564 </i>
    <i name="e_0_energy">   -191.26391342 </i>
   </energy>
  </scstep>
  <scstep>
   <time name="dav">   33.22   33.30</time>
   <time name="total">   33.72   33.81</time>
   <energy>
    <i name="e_fr_energy">   -191.38242826 </i>
    <i name="e_wo_entrp">   -191.18264493 </i>
    <i name="e_0_energy">   -191.28253659 </i>
   </energy>
  </scstep>
  <scstep>
   <time name="dav">   29.49   29.56</time>
   <time name="total">   29.99   30.07</time>
   <energy>
    <i name="e_fr_energy">   -191.36393066 </i>
    <i name="e_wo_entrp">   -191.16963905 </i>
    <i name="e_0_energy">   -191.26678486 </i>
   </energy>
  </scstep>
  <scstep>
   <time name="dav">   28.31   28.37</time>
   <time name="total">   28.81   28.88</time>
   <energy>
    <i name="e_fr_energy">   -191.36406774 </i>
    <i name="e_wo_entrp">   -191.16979684 </i>
    <i name="e_0_energy">   -191.26693229 </i>
   </energy>
  </scstep>
  <scstep>
   <time name="dav">   27.93   27.99</time>
   <time name="total">   28.43   28.50</time>
   <energy>
    <i name="e_fr_energy">   -191.36283680 </i>
    <i name="e_wo_entrp">   -191.16804176 </i>
    <i name="e_0_energy">   -191.26543928 </i>
   </energy>
  </scstep>
  <scstep>
   <time name="dav">   26.76   26.83</time>
   <time name="total">   27.26   27.34</time>
   <energy>
    <i name="e_fr_energy">   -191.36266490 </i>
    <i name="e_wo_entrp">   -191.16790333 </i>
    <i name="e_0_energy">   -191.26528412 </i>
   </energy>
  </scstep>
  <scstep>
   <time name="dav">   24.84   24.90</time>
   <time name="total">   24.87   24.94</time>
   <energy>
    <i name="alphaZ">     90.42798244 </i>
    <i name="ewald">  44761.86354823 </i>
    <i name="hartreedc"> -50774.25912962 </i>
    <i name="XCdc">   -233.36029902 </i>
    <i name="pawpsdc">   4083.29235364 </i>
    <i name="pawaedc">  -3499.18873124 </i>
    <i name="eentropy">     -0.19475117 </i>
    <i name="bandstr">  -1381.38626167 </i>
    <i name="atom">   6761.44252427 </i>
    <i name="e_fr_energy">   -191.36276414 </i>
    <i name="e_wo_entrp">   -191.16801298 </i>
    <i name="e_0_energy">   -191.26538856 </i>
   </energy>
  </scstep>
  <structure>
   <crystal>
    <varray name="basis" >
     <v>       8.26989167       4.77616843       0.00000000 </v>
     <v>      -8.26563855       4.76881371       0.00000000 </v>
[...]
      <set comment="kpoint 31">
       <r>  -17.5833    1.0000 </r>
       <r>  -17.3008    1.0000 </r>
       <r>  -16.8937    1.0000 </r>
       <r>  -16.7002    1.0000 </r>
       <r>  -16.5600    1.0000 </r>
       <r>  -16.4667    1.0000 </r>
       <r>  -16.3171    1.0000 </r>
       <r>  -16.2255    1.0000 </r>
       <r>  -16.1900    1.0000 </r>
       <r>  -16.0950    1.0000 </r>
       <r>  -15.8912    1.0000 </r>
       <r>  -15.8506    1.0000 </r>
       <r>  -15.7489    1.0000 </r>
       <r>  -15.6051    1.0000 </r>
       <r>  -15.5273    1.0000 </r>
       <r>  -15.4410    1.0000 </r>
       <r>  -15.3378    1.0000 </r>
       <r>  -15.2545    1.0000 </r>
       <r>   -9.8404    1.0000 </r>
       <r>   -9.5268    1.0000 </r>
       <r>   -9.3660    1.0000 </r>
       <r>   -9.0435    1.0000 </r>
       <r>   -8.8008    1.0000 </r>
       <r>   -8.7287    1.0000 </r>
       <r>   -8.6249    1.0000 </r>
       <r>   -8.6051    1.0000 </r>
       <r>   -8.4262    1.0000 </r>
       <r>   -8.3353    1.0000 </r>
       <r>   -8.2194    1.0000 </r>
       <r>   -8.1679    1.0000 </r>
       <r>   -8.1311    1.0000 </r>
       <r>   -8.0602    1.0000 </r>
       <r>   -7.9889    1.0000 </r>
       <r>   -7.9215    1.0000 </r>
       <r>   -7.8483    1.0000 </r>
       <r>   -7.7081    1.0000 </r>
       <r>   -7.5768    1.0000 </r>
       <r>   -7.4970    1.0000 </r>
       <r>   -7.4076    1.0000 </r>
       <r>   -7.2927    1.0000 </r>
       <r>   -7.1493    1.0000 </r>
       <r>   -7.0000    1.0000 </r>
       <r>   -6.9407    1.0000 </r>
       <r>   -6.8952    1.0000 </r>
       <r>   -6.8353    1.0000 </r>
       <r>   -6.7687    1.0000 </r>
       <r>   -6.6576    1.0000 </r>
       <r>   -6.6019    1.0000 </r>
       <r>   -6.5265    1.0000 </r>
       <r>   -6.4849    1.0000 </r>
       <r>   -6.4579    1.0000 </r>
       <r>   -6.3358    1.0000 </r>
       <r>   -6.2820    1.0000 </r>
       <r>   -6.2001    1.0000 </r>
       <r>   -6.1025    1.0000 </r>
       <r>   -6.0467    1.0000 </r>
       <r>   -6.0052    1.0000 </r>
       <r>   -5.9546    1.0000 </r>
       <r>   -5.8032    1.0000 </r>
       <r>   -5.7273    1.0000 </r>
       <r>   -5.6456    1.0000 </r>
       <r>   -5.5412    1.0000 </r>
       <r>   -5.4506    1.0000 </r>
       <r>   -5.4335    1.0000 </r>
       <r>   -5.1763    1.0000 </r>
       <r>   -5.0695    1.0000 </r>
       <r>   -5.0359    1.0000 </r>
       <r>   -4.8711    1.0000 </r>
       <r>   -4.7868    1.0000 </r>
       <r>   -4.6707    1.0000 </r>
       <r>   -4.6164    1.0000 </r>
       <r>   -4.4907    1.0000 </r>
       <r>   -4.2871    1.0000 </r>
       <r>   -4.1943    1.0000 </r>
       <r>   -4.1146    1.0000 </r>
       <r>   -3.9629    1.0000 </r>
       <r>   -3.8352    1.0000 </r>
       <r>   -3.7302    0.9998 </r>
       <r>   -3.5797    0.9946 </r>
       <r>   -3.1764    0.3819 </r>
       <r>   -2.9801    0.0456 </r>
       <r>   -2.8159    0.0022 </r>
       <r>   -2.7074    0.0001 </r>
       <r>   -2.5929    0.0000 </r>
       <r>   -2.5184    0.0000 </r>
       <r>   -2.3890    0.0000 </r>
       <r>   -2.2706    0.0000 </r>
       <r>   -2.0917    0.0000 </r>
       <r>   -1.9374    0.0000 </r>
       <r>   -1.8655    0.0000 </r>
       <r>   -1.7685    0.0000 </r>
       <r>   -1.5421    0.0000 </r>
       <r>   -1.3115    0.0000 </r>
       <r>   -1.2552    0.0000 </r>
       <r>   -1.1882    0.0000 </r>
       <r>   -1.1575    0.0000 </r>
       <r>   -1.0428    0.0000 </r>
       <r>   -0.9434    0.0000 </r>
       <r>   -0.9064    0.0000 </r>
       <r>   -0.8149    0.0000 </r>
       <r>   -0.7841    0.0000 </r>
       <r>   -0.7400    0.0000 </r>
       <r>   -0.6454    0.0000 </r>
       <r>   -0.5975    0.0000 </r>
       <r>   -0.5158    0.0000 </r>
       <r>   -0.3478    0.0000 </r>
       <r>   -0.2653    0.0000 </r>
       <r>   -0.0768    0.0000 </r>
       <r>    0.1297    0.0000 </r>
       <r>    0.2107    0.0000 </r>
       <r>    0.4256    0.0000 </r>
       <r>    0.6125    0.0000 </r>
       <r>    0.7428    0.0000 </r>
       <r>    0.7816    0.0000 </r>
       <r>    1.1530    0.0000 </r>
       <r>    1.2533    0.0000 </r>
       <r>    1.5273    0.0000 </r>
       <r>    2.1477    0.0000 </r>
       <r>    2.3007    0.0000 </r>
       <r>    2.3975    0.0000 </r>
      </set>
      <set comment="kpoint 32">
       <r>  -17.5963    1.0000 </r>
       <r>  -17.2459    1.0000 </r>
       <r>  -16.9830    1.0000 </r>
       <r>  -16.7011    1.0000 </r>
       <r>  -16.5522    1.0000 </r>
       <r>  -16.3810    1.0000 </r>
       <r>  -16.2839    1.0000 </r>
       <r>  -16.2441    1.0000 </r>
       <r>  -16.1824    1.0000 </r>
       <r>  -16.1275    1.0000 </r>
       <r>  -15.9535    1.0000 </r>
       <r>  -15.8629    1.0000 </r>
       <r>  -15.7526    1.0000 </r>
       <r>  -15.5632    1.0000 </r>
       <r>  -15.5207    1.0000 </r>
       <r>  -15.4389    1.0000 </r>
       <r>  -15.3435    1.0000 </r>
       <r>  -15.2563    1.0000 </r>
       <r>   -9.7807    1.0000 </r>
       <r>   -9.6240    1.0000 </r>
       <r>   -9.3991    1.0000 </r>
       <r>   -9.0568    1.0000 </r>
       <r>   -8.7005    1.0000 </r>
       <r>   -8.6497    1.0000 </r>
       <r>   -8.5927    1.0000 </r>
       <r>   -8.5018    1.0000 </r>
       <r>   -8.4220    1.0000 </r>
       <r>   -8.3598    1.0000 </r>
       <r>   -8.3054    1.0000 </r>
       <r>   -8.2076    1.0000 </r>
       <r>   -8.1777    1.0000 </r>
       <r>   -8.0954    1.0000 </r>
       <r>   -8.0182    1.0000 </r>
       <r>   -7.9770    1.0000 </r>
       <r>   -7.8543    1.0000 </r>
       <r>   -7.7034    1.0000 </r>
       <r>   -7.5175    1.0000 </r>
       <r>   -7.4509    1.0000 </r>
       <r>   -7.4331    1.0000 </r>
       <r>   -7.2675    1.0000 </r>
       <r>   -7.1658    1.0000 </r>
       <r>   -7.0651    1.0000 </r>
       <r>   -6.9532    1.0000 </r>
       <r>   -6.8985    1.0000 </r>
       <r>   -6.8611    1.0000 </r>
       <r>   -6.7272    1.0000 </r>
       <r>   -6.6721    1.0000 </r>
       <r>   -6.5564    1.0000 </r>
       <r>   -6.5177    1.0000 </r>
       <r>   -6.4876    1.0000 </r>
       <r>   -6.4460    1.0000 </r>
       <r>   -6.3843    1.0000 </r>
       <r>   -6.3400    1.0000 </r>
       <r>   -6.1649    1.0000 </r>
       <r>   -6.0934    1.0000 </r>
       <r>   -6.0294    1.0000 </r>
       <r>   -5.9932    1.0000 </r>
       <r>   -5.8483    1.0000 </r>
       <r>   -5.7627    1.0000 </r>
       <r>   -5.7227    1.0000 </r>
       <r>   -5.6520    1.0000 </r>
       <r>   -5.5657    1.0000 </r>
       <r>   -5.5043    1.0000 </r>
       <r>   -5.3853    1.0000 </r>
       <r>   -5.1690    1.0000 </r>
       <r>   -5.0604    1.0000 </r>
       <r>   -4.9882    1.0000 </r>
       <r>   -4.8608    1.0000 </r>
       <r>   -4.8134    1.0000 </r>
       <r>   -4.7857    1.0000 </r>
       <r>   -4.7108    1.0000 </r>
       <r>   -4.4717    1.0000 </r>
       <r>   -4.2831    1.0000 </r>
       <r>   -4.1796    1.0000 </r>
       <r>   -4.1069    1.0000 </r>
       <r>   -3.9052    1.0000 </r>
       <r>   -3.8494    1.0000 </r>
       <r>   -3.6816    0.9995 </r>
       <r>   -3.6274    0.9981 </r>
       <r>   -3.1407    0.2902 </r>
       <r>   -2.9932    0.0552 </r>
       <r>   -2.8418    0.0038 </r>
       <r>   -2.6850    0.0001 </r>
       <r>   -2.5577    0.0000 </r>
       <r>   -2.5114    0.0000 </r>
       <r>   -2.4163    0.0000 </r>
       <r>   -2.2765    0.0000 </r>
       <r>   -2.1094    0.0000 </r>
       <r>   -1.9664    0.0000 </r>
       <r>   -1.8876    0.0000 </r>
       <r>   -1.7659    0.0000 </r>
       <r>   -1.5083    0.0000 </r>
       <r>   -1.3289    0.0000 </r>
       <r>   -1.2697    0.0000 </r>
       <r>   -1.1896    0.0000 </r>
       <r>   -1.1354    0.0000 </r>
       <r>   -1.0253    0.0000 </r>
       <r>   -0.9800    0.0000 </r>
       <r>   -0.9087    0.0000 </r>
       <r>   -0.8179    0.0000 </r>
       <r>   -0.7648    0.0000 </r>
       <r>   -0.7383    0.0000 </r>
       <r>   -0.6644    0.0000 </r>
       <r>   -0.6211    0.0000 </r>
       <r>   -0.4864    0.0000 </r>
       <r>   -0.3135    0.0000 </r>
       <r>   -0.2137    0.0000 </r>
       <r>   -0.0687    0.0000 </r>
       <r>    0.0859    0.0000 </r>
       <r>    0.1423    0.0000 </r>
       <r>    0.4671    0.0000 </r>
       <r>    0.5784    0.0000 </r>
       <r>    0.6954    0.0000 </r>
       <r>    0.8113    0.0000 </r>
       <r>    1.1520    0.0000 </r>
       <r>    1.2603    0.0000 </r>
       <r>    1.5513    0.0000 </r>
       <r>    2.1166    0.0000 </r>
       <r>    2.2671    0.0000 </r>
       <r>    2.5683    0.0000 </r>
      </set>
      <set comment="kpoint 33">
       <r>  -17.5911    1.0000 </r>
       <r>  -17.2879    1.0000 </r>
       <r>  -16.8929    1.0000 </r>
       <r>  -16.7011    1.0000 </r>
       <r>  -16.5634    1.0000 </r>
       <r>  -16.4772    1.0000 </r>
       <r>  -16.3208    1.0000 </r>
       <r>  -16.2261    1.0000 </r>
       <r>  -16.1732    1.0000 </r>
       <r>  -16.0638    1.0000 </r>
       <r>  -15.9280    1.0000 </r>
       <r>  -15.8658    1.0000 </r>
       <r>  -15.7591    1.0000 </r>
       <r>  -15.5766    1.0000 </r>
       <r>  -15.5171    1.0000 </r>
       <r>  -15.4408    1.0000 </r>
       <r>  -15.3472    1.0000 </r>
       <r>  -15.2577    1.0000 </r>
       <r>   -9.8210    1.0000 </r>
       <r>   -9.5530    1.0000 </r>
       <r>   -9.3363    1.0000 </r>
       <r>   -9.0642    1.0000 </r>
       <r>   -8.8357    1.0000 </r>
       <r>   -8.7094    1.0000 </r>
       <r>   -8.6028    1.0000 </r>
       <r>   -8.5644    1.0000 </r>
       <r>   -8.4364    1.0000 </r>
       <r>   -8.3312    1.0000 </r>
       <r>   -8.2711    1.0000 </r>
       <r>   -8.2057    1.0000 </r>
       <r>   -8.1182    1.0000 </r>
       <r>   -8.0563    1.0000 </r>
       <r>   -7.9706    1.0000 </r>
       <r>   -7.9053    1.0000 </r>
       <r>   -7.8223    1.0000 </r>
       <r>   -7.7273    1.0000 </r>
       <r>   -7.5462    1.0000 </r>
       <r>   -7.5021    1.0000 </r>
       <r>   -7.4115    1.0000 </r>
       <r>   -7.2558    1.0000 </r>
       <r>   -7.1919    1.0000 </r>
       <r>   -7.0991    1.0000 </r>
       <r>   -6.9586    1.0000 </r>
       <r>   -6.8945    1.0000 </r>
       <r>   -6.8385    1.0000 </r>
       <r>   -6.7453    1.0000 </r>
       <r>   -6.6356    1.0000 </r>
       <r>   -6.5706    1.0000 </r>
       <r>   -6.5332    1.0000 </r>
       <r>   -6.5049    1.0000 </r>
       <r>   -6.4291    1.0000 </r>
       <r>   -6.3261    1.0000 </r>
       <r>   -6.3037    1.0000 </r>
       <r>   -6.2140    1.0000 </r>
       <r>   -6.1059    1.0000 </r>
       <r>   -6.0776    1.0000 </r>
       <r>   -5.9613    1.0000 </r>
       <r>   -5.8924    1.0000 </r>
       <r>   -5.8277    1.0000 </r>
       <r>   -5.7236    1.0000 </r>
       <r>   -5.6460    1.0000 </r>
       <r>   -5.4904    1.0000 </r>
       <r>   -5.4651    1.0000 </r>
       <r>   -5.4282    1.0000 </r>
       <r>   -5.1824    1.0000 </r>
       <r>   -5.0794    1.0000 </r>
       <r>   -5.0334    1.0000 </r>
       <r>   -4.9040    1.0000 </r>
       <r>   -4.7781    1.0000 </r>
       <r>   -4.7003    1.0000 </r>
       <r>   -4.6109    1.0000 </r>
       <r>   -4.4705    1.0000 </r>
       <r>   -4.2898    1.0000 </r>
       <r>   -4.1923    1.0000 </r>
       <r>   -4.1167    1.0000 </r>
       <r>   -3.9195    1.0000 </r>
       <r>   -3.8605    1.0000 </r>
       <r>   -3.7173    0.9998 </r>
       <r>   -3.6174    0.9976 </r>
       <r>   -3.1026    0.2055 </r>
       <r>   -3.0049    0.0651 </r>
       <r>   -2.9081    0.0140 </r>
       <r>   -2.6588    0.0000 </r>
       <r>   -2.5564    0.0000 </r>
       <r>   -2.5166    0.0000 </r>
       <r>   -2.4013    0.0000 </r>
       <r>   -2.2524    0.0000 </r>
       <r>   -2.0992    0.0000 </r>
       <r>   -1.9915    0.0000 </r>
       <r>   -1.8755    0.0000 </r>
       <r>   -1.7671    0.0000 </r>
       <r>   -1.4815    0.0000 </r>
       <r>   -1.3317    0.0000 </r>
       <r>   -1.2927    0.0000 </r>
       <r>   -1.1595    0.0000 </r>
       <r>   -1.1249    0.0000 </r>
       <r>   -1.0676    0.0000 </r>
       <r>   -0.9756    0.0000 </r>
       <r>   -0.9041    0.0000 </r>
       <r>   -0.8661    0.0000 </r>
       <r>   -0.7708    0.0000 </r>
       <r>   -0.7384    0.0000 </r>
       <r>   -0.7096    0.0000 </r>
       <r>   -0.5810    0.0000 </r>
       <r>   -0.5537    0.0000 </r>
       <r>   -0.2552    0.0000 </r>
       <r>   -0.1757    0.0000 </r>
       <r>   -0.0608    0.0000 </r>
       <r>    0.0319    0.0000 </r>
       <r>    0.1258    0.0000 </r>
       <r>    0.4572    0.0000 </r>
       <r>    0.5610    0.0000 </r>
       <r>    0.6956    0.0000 </r>
       <r>    0.8616    0.0000 </r>
       <r>    1.1737    0.0000 </r>
       <r>    1.2709    0.0000 </r>
       <r>    1.5695    0.0000 </r>
       <r>    2.1466    0.0000 </r>
       <r>    2.3024    0.0000 </r>
       <r>    2.3952    0.0000 </r>
      </set>
      <set comment="kpoint 34">
       <r>  -17.5830    1.0000 </r>
       <r>  -17.3238    1.0000 </r>
       <r>  -16.7549    1.0000 </r>
       <r>  -16.6961    1.0000 </r>
       <r>  -16.6646    1.0000 </r>
       <r>  -16.5339    1.0000 </r>
       <r>  -16.3264    1.0000 </r>
       <r>  -16.2191    1.0000 </r>
       <r>  -16.1739    1.0000 </r>
       <r>  -16.0434    1.0000 </r>
       <r>  -15.8882    1.0000 </r>
       <r>  -15.8462    1.0000 </r>
       <r>  -15.7681    1.0000 </r>
       <r>  -15.6053    1.0000 </r>
       <r>  -15.5152    1.0000 </r>
       <r>  -15.4418    1.0000 </r>
       <r>  -15.3483    1.0000 </r>
       <r>  -15.2582    1.0000 </r>
       <r>   -9.8518    1.0000 </r>
       <r>   -9.4853    1.0000 </r>
       <r>   -9.2310    1.0000 </r>
       <r>   -9.1081    1.0000 </r>
       <r>   -8.9517    1.0000 </r>
       <r>   -8.7963    1.0000 </r>
       <r>   -8.6175    1.0000 </r>
       <r>   -8.5801    1.0000 </r>
       <r>   -8.4253    1.0000 </r>
       <r>   -8.3288    1.0000 </r>
       <r>   -8.2578    1.0000 </r>
       <r>   -8.1899    1.0000 </r>
       <r>   -8.1061    1.0000 </r>
       <r>   -8.0307    1.0000 </r>
       <r>   -7.9658    1.0000 </r>
       <r>   -7.7786    1.0000 </r>
       <r>   -7.7402    1.0000 </r>
       <r>   -7.7183    1.0000 </r>
       <r>   -7.5834    1.0000 </r>
       <r>   -7.5519    1.0000 </r>
       <r>   -7.4774    1.0000 </r>
       <r>   -7.3017    1.0000 </r>
       <r>   -7.1982    1.0000 </r>
       <r>   -7.0341    1.0000 </r>
       <r>   -6.9654    1.0000 </r>
       <r>   -6.9288    1.0000 </r>
       <r>   -6.8046    1.0000 </r>
       <r>   -6.6811    1.0000 </r>
       <r>   -6.6382    1.0000 </r>
       <r>   -6.5824    1.0000 </r>
       <r>   -6.5562    1.0000 </r>
       <r>   -6.5196    1.0000 </r>
       <r>   -6.3931    1.0000 </r>
       <r>   -6.3435    1.0000 </r>
       <r>   -6.3373    1.0000 </r>
       <r>   -6.2236    1.0000 </r>
       <r>   -6.1472    1.0000 </r>
       <r>   -6.0559    1.0000 </r>
       <r>   -5.9826    1.0000 </r>
       <r>   -5.8884    1.0000 </r>
       <r>   -5.7815    1.0000 </r>
       <r>   -5.7455    1.0000 </r>
       <r>   -5.6330    1.0000 </r>
       <r>   -5.5773    1.0000 </r>
       <r>   -5.5075    1.0000 </r>
       <r>   -5.3727    1.0000 </r>
       <r>   -5.1815    1.0000 </r>
       <r>   -5.0581    1.0000 </r>
       <r>   -5.0128    1.0000 </r>
       <r>   -4.9671    1.0000 </r>
       <r>   -4.7873    1.0000 </r>
       <r>   -4.6063    1.0000 </r>
       <r>   -4.5219    1.0000 </r>
       <r>   -4.4601    1.0000 </r>
       <r>   -4.2879    1.0000 </r>
       <r>   -4.2051    1.0000 </r>
       <r>   -4.1585    1.0000 </r>
       <r>   -3.9560    1.0000 </r>
       <r>   -3.8556    1.0000 </r>
       <r>   -3.7398    0.9999 </r>
       <r>   -3.6083    0.9971 </r>
       <r>   -3.0851    0.1720 </r>
       <r>   -3.0038    0.0641 </r>
       <r>   -2.9511    0.0291 </r>
       <r>   -2.6464    0.0000 </r>
       <r>   -2.5724    0.0000 </r>
       <r>   -2.5203    0.0000 </r>
       <r>   -2.3805    0.0000 </r>
       <r>   -2.2336    0.0000 </r>
       <r>   -2.0862    0.0000 </r>
       <r>   -1.9988    0.0000 </r>
       <r>   -1.8633    0.0000 </r>
       <r>   -1.7719    0.0000 </r>
       <r>   -1.4736    0.0000 </r>
       <r>   -1.3216    0.0000 </r>
       <r>   -1.3057    0.0000 </r>
       <r>   -1.1459    0.0000 </r>
       <r>   -1.1040    0.0000 </r>
       <r>   -1.0923    0.0000 </r>
       <r>   -0.9921    0.0000 </r>
       <r>   -0.9251    0.0000 </r>
       <r>   -0.8223    0.0000 </r>
       <r>   -0.8086    0.0000 </r>
       <r>   -0.7605    0.0000 </r>
       <r>   -0.7313    0.0000 </r>
       <r>   -0.5956    0.0000 </r>
       <r>   -0.5496    0.0000 </r>
       <r>   -0.2382    0.0000 </r>
       <r>   -0.1677    0.0000 </r>
       <r>   -0.0672    0.0000 </r>
       <r>    0.0244    0.0000 </r>
       <r>    0.1353    0.0000 </r>
       <r>    0.4346    0.0000 </r>
       <r>    0.5566    0.0000 </r>
       <r>    0.7121    0.0000 </r>
       <r>    0.8867    0.0000 </r>
       <r>    1.1984    0.0000 </r>
       <r>    1.2676    0.0000 </r>
       <r>    1.5765    0.0000 </r>
       <r>    2.2339    0.0000 </r>
       <r>    2.2437    0.0000 </r>
       <r>    2.4006    0.0000 </r>
      </set>
     </set>
    </set>
   </array>
  </eigenvalues>
  <separator name="orbital magnetization" >
   <v name="MAGDIPOLOUT">      0.00000000      0.00000000      0.00000000</v>
  </separator>
 </calculation>
 <structure name="finalpos" >
  <crystal>
   <varray name="basis" >
    <v>       8.31479201       4.83129127       0.00000000 </v>
    <v>      -8.29321913       4.79401622       0.00000000 </v>
    <v>       0.00000000       0.00000000      30.00000000 </v>
   </varray>
   <i name="volume">   2397.84614735 </i>
   <varray name="rec_basis" >
    <v>       0.05997903       0.10375836       0.00000000 </v>
    <v>      -0.06044539       0.10402826       0.00000000 </v>
    <v>       0.00000000       0.00000000       0.03333333 </v>
   </varray>
  </crystal>
  <varray name="positions" >
   <v>       0.36781864       0.35585221      -0.00182519 </v>
   <v>       0.36969338       0.01348963      -0.00182870 </v>
   <v>      -0.03369671       0.65010910       0.00207537 </v>
   <v>       0.67295881       0.35447565      -0.00036087 </v>
   <v>       0.66414923       0.66734316      -0.00011175 </v>
   <v>       0.37161661       0.68422436      -0.00174717 </v>
   <v>      -0.03412884      -0.02098266       0.00106234 </v>
   <v>       0.95919301       0.31694847       0.00269830 </v>
   <v>       0.66824365      -0.01840268      -0.00001893 </v>
   <v>       0.11195365       0.22530553       0.95703708 </v>
   <v>       0.22490930       0.11092263       0.04184332 </v>
   <v>       0.10954138       0.55675983       0.95707596 </v>
   <v>       0.22060224       0.44154635       0.04444212 </v>
   <v>       0.11290778       0.88562970       0.95609440 </v>
   <v>       0.22152252       0.77982614       0.04292201 </v>
   <v>       0.44248454       0.22411644       0.94723188 </v>
   <v>       0.56027998       0.11270670       0.05011055 </v>
   <v>       0.44618193       0.55124423       0.94426203 </v>
   <v>       0.55121227       0.44410862       0.05386885 </v>
   <v>       0.44950783       0.89269675       0.94466724 </v>
   <v>       0.56139778       0.77809619       0.05622474 </v>
   <v>       0.76552043       0.21681880       0.94765952 </v>
   <v>       0.88450049       0.10679101       0.05627279 </v>
   <v>       0.78252505       0.56120283       0.94563872 </v>
   <v>       0.88570181       0.45085441       0.05625788 </v>
   <v>       0.77279112       0.88316222       0.94335040 </v>
   <v>       0.88882659       0.77336884       0.05509700 </v>
  </varray>
 </structure>
</modeling>
