<?xml version="1.0" encoding="ISO-8859-1"?>
<modeling>
 <generator>
  <i name="program" type="string">vasp </i>
  <i name="version" type="string">5.4.1  </i>
  <i name="subversion" type="string">05Feb16 (build Jul 05 2020 17:13:04) complex                          parallel </i>
  <i name="platform" type="string">IFC91_ompi </i>
  <i name="date" type="string">2024 07 28 </i>
  <i name="time" type="string">19:15:38 </i>
 </generator>
 <incar>
  <i type="int" name="ISTART">     0</i>
  <i type="string" name="PREC">normal</i>
  <i type="string" name="ALGO"> Normal</i>
  <i type="int" name="ISPIN">     1</i>
  <i type="int" name="ICHARG">     2</i>
  <i type="int" name="IBRION">     1</i>
  <i type="int" name="NSW">   100</i>
  <i type="int" name="ISIF">     3</i>
  <i type="int" name="ISYM">     0</i>
  <i name="SYMPREC">      0.00000001</i>
  <i name="POTIM">      0.50000000</i>
  <i type="logical" name="LREAL"> F  </i>
  <i type="logical" name="LPLANE"> F  </i>
  <i type="int" name="ISMEAR">     0</i>
  <i type="logical" name="LWAVE"> F  </i>
  <i type="logical" name="LCHARG"> F  </i>
  <v type="int" name="KPOINT_BSE">    -1     0     0     0</v>
 </incar>
 <kpoints>
  <generation param="Gamma">
   <v type="int" name="divisions">       8        8        1 </v>
   <v name="usershift">      0.00000000       0.00000000       0.00000000 </v>
   <v name="genvec1">      0.12500000       0.00000000       0.00000000 </v>
   <v name="genvec2">     -0.00000000       0.12500000       0.00000000 </v>
   <v name="genvec3">      0.00000000       0.00000000       1.00000000 </v>
   <v name="shift">      0.00000000       0.00000000       0.00000000 </v>
  </generation>
  <varray name="kpointlist" >
   <v>       0.00000000       0.00000000       0.00000000 </v>
   <v>       0.12500000       0.00000000       0.00000000 </v>
   <v>       0.25000000       0.00000000       0.00000000 </v>
   <v>       0.37500000       0.00000000       0.00000000 </v>
   <v>       0.50000000       0.00000000       0.00000000 </v>
   <v>       0.00000000       0.12500000       0.00000000 </v>
   <v>       0.12500000       0.12500000       0.00000000 </v>
   <v>       0.25000000       0.12500000       0.00000000 </v>
   <v>       0.37500000       0.12500000       0.00000000 </v>
   <v>       0.50000000       0.12500000       0.00000000 </v>
   <v>      -0.37500000       0.12500000       0.00000000 </v>
   <v>      -0.25000000       0.12500000       0.00000000 </v>
   <v>      -0.12500000       0.12500000       0.00000000 </v>
   <v>       0.00000000       0.25000000       0.00000000 </v>
   <v>       0.12500000       0.25000000       0.00000000 </v>
   <v>       0.25000000       0.25000000       0.00000000 </v>
   <v>       0.37500000       0.25000000       0.00000000 </v>
   <v>       0.50000000       0.25000000       0.00000000 </v>
   <v>      -0.37500000       0.25000000       0.00000000 </v>
   <v>      -0.25000000       0.25000000       0.00000000 </v>
   <v>      -0.12500000       0.25000000       0.00000000 </v>
   <v>      -0.00000000       0.37500000       0.00000000 </v>
   <v>       0.12500000       0.37500000       0.00000000 </v>
   <v>       0.25000000       0.37500000       0.00000000 </v>
   <v>       0.37500000       0.37500000       0.00000000 </v>
   <v>       0.50000000       0.37500000       0.00000000 </v>
   <v>      -0.37500000       0.37500000       0.00000000 </v>
   <v>      -0.25000000       0.37500000       0.00000000 </v>
   <v>      -0.12500000       0.37500000       0.00000000 </v>
   <v>       0.00000000       0.50000000       0.00000000 </v>
   <v>       0.12500000       0.50000000       0.00000000 </v>
   <v>       0.25000000       0.50000000       0.00000000 </v>
   <v>       0.37500000       0.50000000       0.00000000 </v>
   <v>       0.50000000       0.50000000       0.00000000 </v>
  </varray>
  <varray name="weights" >
   <v>       0.01562500 </v>
   <v>       0.03125000 </v>
   <v>       0.03125000 </v>
   <v>       0.03125000 </v>
   <v>       0.01562500 </v>
   <v>       0.03125000 </v>
   <v>       0.03125000 </v>
   <v>       0.03125000 </v>
   <v>       0.03125000 </v>
   <v>       0.03125000 </v>
   <v>       0.03125000 </v>
   <v>       0.03125000 </v>
   <v>       0.03125000 </v>
   <v>       0.03125000 </v>
   <v>       0.03125000 </v>
   <v>       0.03125000 </v>
   <v>       0.03125000 </v>
   <v>       0.03125000 </v>
   <v>       0.03125000 </v>
   <v>       0.03125000 </v>
   <v>       0.03125000 </v>
   <v>       0.03125000 </v>
   <v>       0.03125000 </v>
   <v>       0.03125000 </v>
   <v>       0.03125000 </v>
   <v>       0.03125000 </v>
   <v>       0.03125000 </v>
   <v>       0.03125000 </v>
   <v>       0.03125000 </v>
   <v>       0.01562500 </v>
   <v>       0.03125000 </v>
   <v>       0.03125000 </v>
   <v>       0.03125000 </v>
   <v>       0.01562500 </v>
  </varray>
 </kpoints>
 <parameters>
  <separator name="general" >
   <i type="string" name="SYSTEM">unknown system</i>
   <i type="logical" name="LCOMPAT"> F  </i>
  </separator>
  <separator name="electronic" >
   <i type="string" name="PREC">normal</i>
   <i name="ENMAX">    280.00000000</i>
   <i name="ENAUG">    373.43800000</i>
   <i name="EDIFF">      0.00010000</i>
   <i type="int" name="IALGO">    38</i>
   <i type="int" name="IWAVPR">    11</i>
   <i type="int" name="NBANDS">   120</i>
   <i name="NELECT">    159.00000000</i>
   <i type="int" name="TURBO">     0</i>
   <i type="int" name="IRESTART">     0</i>
   <i type="int" name="NREBOOT">     0</i>
   <i type="int" name="NMIN">     0</i>
   <i name="EREF">      0.00000000</i>
   <separator name="electronic smearing" >
    <i type="int" name="ISMEAR">     0</i>
    <i name="SIGMA">      0.20000000</i>
    <i name="KSPACING">      0.50000000</i>
    <i type="logical" name="KGAMMA"> T  </i>
   </separator>
   <separator name="electronic projectors" >
    <i type="logical" name="LREAL"> F  </i>
    <v name="ROPT">      0.00000000      0.00000000      0.00000000      0.00000000</v>
    <i type="int" name="LMAXPAW">  -100</i>
    <i type="int" name="LMAXMIX">     2</i>
    <i type="logical" name="NLSPLINE"> F  </i>
   </separator>
   <separator name="electronic startup" >
    <i type="int" name="ISTART">     0</i>
    <i type="int" name="ICHARG">     2</i>
    <i type="int" name="INIWAV">     1</i>
   </separator>
   <separator name="electronic spin" >
    <i type="int" name="ISPIN">     1</i>
    <i type="logical" name="LNONCOLLINEAR"> F  </i>
    <v name="MAGMOM">      1.00000000      1.00000000      1.00000000      1.00000000      1.00000000      1.00000000      1.00000000      1.00000000      1.00000000      1.00000000      1.00000000      1.00000000      1.00000000      1.00000000      1.00000000      1.00000000      1.00000000      1.00000000      1.00000000      1.00000000
      1.00000000      1.00000000      1.00000000      1.00000000      1.00000000      1.00000000      1.00000000</v>
    <i name="NUPDOWN">     -1.00000000</i>
    <i type="logical" name="LSORBIT"> F  </i>
    <v name="SAXIS">      0.00000000      0.00000000      1.00000000</v>
    <i type="logical" name="LSPIRAL"> F  </i>
    <v name="QSPIRAL">      0.00000000      0.00000000      0.00000000</v>
    <i type="logical" name="LZEROZ"> F  </i>
   </separator>
   <separator name="electronic exchange-correlation" >
    <i type="logical" name="LASPH"> F  </i>
    <i type="logical" name="LMETAGGA"> F  </i>
   </separator>
   <separator name="electronic convergence" >
    <i type="int" name="NELM">    60</i>
    <i type="int" name="NELMDL">    -5</i>
    <i type="int" name="NELMIN">     2</i>
    <i name="ENINI">    280.00000000</i>
    <separator name="electronic convergence detail" >
     <i type="logical" name="LDIAG"> T  </i>
     <i type="logical" name="LSUBROT"> F  </i>
     <i name="WEIMIN">      0.00100000</i>
     <i name="EBREAK">      0.00000021</i>
     <i name="DEPER">      0.30000000</i>
     <i type="int" name="NRMM">     4</i>
     <i name="TIME">      0.40000000</i>
    </separator>
   </separator>
   <separator name="electronic mixer" >
    <i name="AMIX">      0.40000000</i>
    <i name="BMIX">      1.00000000</i>
    <i name="AMIN">      0.10000000</i>
    <i name="AMIX_MAG">      1.60000000</i>
    <i name="BMIX_MAG">      1.00000000</i>
    <separator name="electronic mixer details" >
     <i type="int" name="IMIX">     4</i>
     <i type="logical" name="MIXFIRST"> F  </i>
     <i type="int" name="MAXMIX">   -45</i>
     <i name="WC">    100.00000000</i>
     <i type="int" name="INIMIX">     1</i>
     <i type="int" name="MIXPRE">     1</i>
     <i type="int" name="MREMOVE">     5</i>
    </separator>
   </separator>
   <separator name="electronic dipolcorrection" >
    <i type="logical" name="LDIPOL"> F  </i>
    <i type="logical" name="LMONO"> F  </i>
    <i type="int" name="IDIPOL">     0</i>
    <i name="EPSILON">      1.00000000</i>
    <v name="DIPOL">   -100.00000000   -100.00000000   -100.00000000</v>
    <i name="EFIELD">      0.00000000</i>
   </separator>
  </separator>
  <separator name="grids" >
   <i type="int" name="NGX">    42</i>
   <i type="int" name="NGY">    42</i>
   <i type="int" name="NGZ">   126</i>
   <i type="int" name="NGXF">    84</i>
   <i type="int" name="NGYF">    84</i>
   <i type="int" name="NGZF">   252</i>
   <i type="logical" name="ADDGRID"> F  </i>
  </separator>
  <separator name="ionic" >
   <i type="int" name="NSW">   100</i>
   <i type="int" name="IBRION">     1</i>
   <i type="int" name="ISIF">     3</i>
   <i name="PSTRESS">      0.00000000</i>
   <i name="EDIFFG">      0.00100000</i>
   <i type="int" name="NFREE">     0</i>
   <i name="POTIM">      0.50000000</i>
   <i name="SMASS">     -3.00000000</i>
   <i name="SCALEE">      1.00000000</i>
  </separator>
  <separator name="ionic md" >
   <i name="TEBEG">      0.00010000</i>
   <i name="TEEND">      0.00010000</i>
   <i type="int" name="NBLOCK">     1</i>
   <i type="int" name="KBLOCK">   100</i>
   <i type="int" name="NPACO">   256</i>
   <i name="APACO">     16.00000000</i>
  </separator>
  <separator name="symmetry" >
   <i type="int" name="ISYM">     0</i>
   <i name="SYMPREC">      0.00000001</i>
  </separator>
  <separator name="dos" >
   <i type="logical" name="LORBIT"> F  </i>
   <v name="RWIGS">     -1.00000000     -1.00000000     -1.00000000     -1.00000000</v>
   <i type="int" name="NEDOS">   301</i>
   <i name="EMIN">     10.00000000</i>
   <i name="EMAX">    -10.00000000</i>
   <i name="EFERMI">      0.00000000</i>
  </separator>
  <separator name="writing" >
   <i type="int" name="NWRITE">     2</i>
   <i type="logical" name="LWAVE"> F  </i>
   <i type="logical" name="LCHARG"> F  </i>
   <i type="logical" name="LPARD"> F  </i>
   <i type="logical" name="LVTOT"> F  </i>
   <i type="logical" name="LVHAR"> F  </i>
   <i type="logical" name="LELF"> F  </i>
   <i type="logical" name="LOPTICS"> F  </i>
   <v name="STM">      0.00000000      0.00000000      0.00000000      0.00000000      0.00000000      0.00000000      0.00000000</v>
  </separator>
  <separator name="performance" >
   <i type="int" name="NPAR">    40</i>
   <i type="int" name="NSIM">     4</i>
   <i type="int" name="NBLK">    -1</i>
   <i type="logical" name="LPLANE"> F  </i>
   <i type="logical" name="LSCALAPACK"> T  </i>
   <i type="logical" name="LSCAAWARE"> F  </i>
   <i type="logical" name="LSCALU"> F  </i>
   <i type="logical" name="LASYNC"> F  </i>
   <i type="logical" name="LORBITALREAL"> F  </i>
  </separator>
  <separator name="miscellaneous" >
   <i type="int" name="IDIOT">     3</i>
   <i type="logical" name="LMUSIC"> F  </i>
   <v name="POMASS">     50.94100000     95.94000000    183.85000000     32.06600000</v>
   <v name="DARWINR">      0.00000000      0.00000000      0.00000000      0.00000000</v>
   <v name="DARWINV">      1.00000000      1.00000000      1.00000000      1.00000000</v>
   <i type="logical" name="LCORR"> T  </i>
  </separator>
  <i type="logical" name="GGA_COMPAT"> T  </i>
  <i type="logical" name="LBERRY"> F  </i>
  <i type="int" name="ICORELEVEL">     0</i>
  <i type="logical" name="LDAU"> F  </i>
  <i type="int" name="I_CONSTRAINED_M">     0</i>
  <separator name="electronic exchange-correlation" >
   <i type="string" name="GGA">--</i>
   <i type="int" name="VOSKOWN">     0</i>
   <i type="logical" name="LHFCALC"> F  </i>
   <i type="string" name="PRECFOCK"></i>
   <i type="logical" name="LSYMGRAD"> F  </i>
   <i type="logical" name="LHFONE"> F  </i>
   <i type="logical" name="LRHFCALC"> F  </i>
   <i type="logical" name="LTHOMAS"> F  </i>
   <i type="logical" name="LMODELHF"> F  </i>
   <i name="ENCUT4O">     -1.00000000</i>
   <i type="int" name="EXXOEP">     0</i>
   <i type="int" name="FOURORBIT">     0</i>
   <i name="AEXX">      0.00000000</i>
   <i name="HFALPHA">      0.00000000</i>
   <i name="MCALPHA">      0.00000000</i>
   <i name="ALDAX">      1.00000000</i>
   <i name="AGGAX">      1.00000000</i>
   <i name="ALDAC">      1.00000000</i>
   <i name="AGGAC">      1.00000000</i>
   <i type="int" name="NKREDX">     1</i>
   <i type="int" name="NKREDY">     1</i>
   <i type="int" name="NKREDZ">     1</i>
   <i type="logical" name="SHIFTRED"> F  </i>
   <i type="logical" name="ODDONLY"> F  </i>
   <i type="logical" name="EVENONLY"> F  </i>
   <i type="int" name="LMAXFOCK">     0</i>
   <i type="int" name="NMAXFOCKAE">     0</i>
   <i type="logical" name="LFOCKAEDFT"> F  </i>
   <i name="HFSCREEN">      0.00000000</i>
   <i name="HFSCREENC">      0.00000000</i>
   <i type="int" name="NBANDSGWLOW">     0</i>
  </separator>
  <separator name="vdW DFT" >
   <i type="logical" name="LUSE_VDW"> F  </i>
   <i name="Zab_VDW">     -0.84910000</i>
   <i name="PARAM1">      0.12340000</i>
   <i name="PARAM2">      1.00000000</i>
   <i name="PARAM3">      0.00000000</i>
  </separator>
  <separator name="model GW" >
   <i type="int" name="MODEL_GW">     0</i>
   <i name="MODEL_EPS0">     58.26239943</i>
   <i name="MODEL_ALPHA">      1.00000000</i>
  </separator>
  <separator name="linear response parameters" >
   <i type="logical" name="LEPSILON"> F  </i>
   <i type="logical" name="LRPA"> F  </i>
   <i type="logical" name="LNABLA"> F  </i>
   <i type="logical" name="LVEL"> F  </i>
   <i type="int" name="KINTER">     0</i>
   <i name="CSHIFT">      0.10000000</i>
   <i name="OMEGAMAX">     -1.00000000</i>
   <i name="DEG_THRESHOLD">      0.00200000</i>
  </separator>
  <separator name="orbital magnetization" >
   <i type="logical" name="NUCIND"> F  </i>
   <v name="MAGPOS">      0.00000000      0.00000000      0.00000000</v>
   <i type="logical" name="LNICSALL"> T  </i>
   <i type="logical" name="ORBITALMAG"> F  </i>
   <i type="logical" name="LMAGBLOCH"> F  </i>
   <i type="logical" name="LCHIMAG"> F  </i>
   <i type="logical" name="LGAUGE"> T  </i>
   <i type="int" name="MAGATOM">     0</i>
   <v name="MAGDIPOL">      0.00000000      0.00000000      0.00000000</v>
   <v name="AVECCONST">      0.00000000      0.00000000      0.00000000</v>
  </separator>
  <separator name="response functions" >
   <i type="logical" name="LADDER"> F  </i>
   <i type="logical" name="LFXC"> F  </i>
   <i type="logical" name="LHARTREE"> T  </i>
   <i type="int" name="IBSE">     0</i>
   <v type="int" name="KPOINT">    -1     0     0     0</v>
   <i type="logical" name="LTCTE"> F  </i>
   <i type="logical" name="LTETE"> F  </i>
   <i type="logical" name="LTRIPLET"> F  </i>
   <i type="logical" name="LFXCEPS"> F  </i>
   <i type="logical" name="LFXHEG"> F  </i>
   <i type="int" name="NATURALO">     0</i>
   <i type="logical" name="L2ORDER"> F  </i>
   <i type="logical" name="LUSEW"> F  </i>
   <i name="ENCUTGW">     -2.00000000</i>
   <i name="ENCUTGWSOFT">     -2.00000000</i>
   <i name="ENCUTLF">     -1.00000000</i>
   <i type="int" name="LMAXMP2">    -1</i>
   <i name="SCISSOR">      0.00000000</i>
   <i type="int" name="NOMEGA">     0</i>
   <i type="int" name="NOMEGAR">     0</i>
   <i type="int" name="NBANDSGW">    -1</i>
   <i type="int" name="NBANDSO">    -1</i>
   <i type="int" name="NBANDSV">    -1</i>
   <i type="int" name="NELM">     1</i>
   <i type="int" name="NELMHF">     1</i>
   <i type="int" name="DIM">     3</i>
   <i type="int" name="ANTIRES">     0</i>
   <i name="OMEGAMAX">    -30.00000000</i>
   <i name="OMEGAMIN">    -30.00000000</i>
   <i name="OMEGATL">   -200.00000000</i>
   <i type="int" name="OMEGAGRID">     0</i>
   <i name="CSHIFT">     -0.10000000</i>
   <i type="logical" name="SELFENERGY"> F  </i>
   <i type="logical" name="LSPECTRAL"> F  </i>
   <i type="logical" name="LSPECTRALGW"> F  </i>
   <i type="logical" name="LSINGLES"> F  </i>
   <i type="logical" name="LFERMIGW"> F  </i>
   <i type="logical" name="ODDONLYGW"> F  </i>
   <i type="logical" name="EVENONLYGW"> F  </i>
   <i type="int" name="NKREDLFX">     1</i>
   <i type="int" name="NKREDLFY">     1</i>
   <i type="int" name="NKREDLFZ">     1</i>
   <i type="int" name="MAXMEM">  1800</i>
   <i type="int" name="TELESCOPE">     0</i>
   <i type="int" name="TAUPAR">     1</i>
   <i type="int" name="OMEGAPAR">    -1</i>
   <i name="LAMBDA">      1.00000000</i>
  </separator>
  <separator name="External order field" >
   <i name="OFIELD_KAPPA">      0.00000000</i>
   <v name="OFIELD_K">      0.00000000      0.00000000      0.00000000</v>
   <i name="OFIELD_Q6_NEAR">      0.00000000</i>
   <i name="OFIELD_Q6_FAR">      0.00000000</i>
   <i name="OFIELD_A">      0.00000000</i>
  </separator>
 </parameters>
 <atominfo>
  <atoms>      27 </atoms>
  <types>       4 </types>
  <array name="atoms" >
   <dimension dim="1">ion</dimension>
   <field type="string">element</field>
   <field type="int">atomtype</field>
   <set>
    <rc><c>V </c><c>   1</c></rc>
    <rc><c>V </c><c>   1</c></rc>
    <rc><c>V </c><c>   1</c></rc>
    <rc><c>Mo</c><c>   2</c></rc>
    <rc><c>Mo</c><c>   2</c></rc>
    <rc><c>Mo</c><c>   2</c></rc>
    <rc><c>W </c><c>   3</c></rc>
    <rc><c>W </c><c>   3</c></rc>
    <rc><c>W </c><c>   3</c></rc>
    <rc><c>S </c><c>   4</c></rc>
    <rc><c>S </c><c>   4</c></rc>
    <rc><c>S </c><c>   4</c></rc>
    <rc><c>S </c><c>   4</c></rc>
    <rc><c>S </c><c>   4</c></rc>
    <rc><c>S </c><c>   4</c></rc>
    <rc><c>S </c><c>   4</c></rc>
    <rc><c>S </c><c>   4</c></rc>
    <rc><c>S </c><c>   4</c></rc>
    <rc><c>S </c><c>   4</c></rc>
    <rc><c>S </c><c>   4</c></rc>
    <rc><c>S </c><c>   4</c></rc>
    <rc><c>S </c><c>   4</c></rc>
    <rc><c>S </c><c>   4</c></rc>
    <rc><c>S </c><c>   4</c></rc>
    <rc><c>S </c><c>   4</c></rc>
    <rc><c>S </c><c>   4</c></rc>
    <rc><c>S </c><c>   4</c></rc>
   </set>
  </array>
  <array name="atomtypes" >
   <dimension dim="1">type</dimension>
   <field type="int">atomspertype</field>
   <field type="string">element</field>
   <field>mass</field>
   <field>valence</field>
   <field type="string">pseudopotential</field>
   <set>
    <rc><c>   3</c><c>V </c><c>     50.94100000</c><c>      5.00000000</c><c> PAW_PBE V 08Apr2002                    </c></rc>
    <rc><c>   3</c><c>Mo</c><c>     95.94000000</c><c>      6.00000000</c><c> PAW_PBE Mo 08Apr2002                   </c></rc>
    <rc><c>   3</c><c>W </c><c>    183.85000000</c><c>      6.00000000</c><c> PAW_PBE W 08Apr2002                    </c></rc>
    <rc><c>  18</c><c>S </c><c>     32.06600000</c><c>      6.00000000</c><c>  PAW_PBE S 17Jan2003                   </c></rc>
   </set>
  </array>
 </atominfo>
 <structure name="initialpos" >
  <crystal>
   <varray name="basis" >
    <v>       8.66999996       5.03999989       0.00000000 </v>
    <v>      -8.66999982       5.04000013       0.00000000 </v>
    <v>       0.00000000       0.00000000      30.00000000 </v>
   </varray>
   <i name="volume">   2621.80797419 </i>
   <varray name="rec_basis" >
    <v>       0.05767013       0.09920635       0.00000000 </v>
    <v>      -0.05767013       0.09920635       0.00000000 </v>
    <v>       0.00000000       0.00000000       0.03333333 </v>
   </varray>
  </crystal>
  <varray name="positions" >
   <v>       0.33333334       0.33333334       0.00000000 </v>
   <v>       0.00000000       0.66666669       0.00000000 </v>
   <v>       1.00000000       0.33333334       0.00000000 </v>
   <v>       0.33333334       0.00000000       0.00000000 </v>
   <v>       0.66666669       0.33333334       0.00000000 </v>
   <v>       0.66666669       0.66666669       0.00000000 </v>
   <v>       0.00000000       0.00000000       0.00000000 </v>
   <v>       0.33333334       0.66666669       0.00000000 </v>
   <v>       0.66666669       0.00000000       0.00000000 </v>
   <v>       0.11068511       0.22244981       0.95539999 </v>
   <v>       0.22244981       0.11068511       0.04460000 </v>
   <v>       0.11068511       0.55578315       0.95539999 </v>
   <v>       0.22244981       0.44401845       0.04460000 </v>
   <v>       0.11068511       0.88911647       0.95539999 </v>
   <v>       0.22244981       0.77735180       0.04460000 </v>
   <v>       0.44401845       0.22244981       0.95539999 </v>
   <v>       0.55578315       0.11068511       0.04460000 </v>
   <v>       0.44401845       0.55578315       0.95539999 </v>
   <v>       0.55578315       0.44401845       0.04460000 </v>
   <v>       0.44401845       0.88911647       0.95539999 </v>
   <v>       0.55578315       0.77735180       0.04460000 </v>
   <v>       0.77735180       0.22244981       0.95539999 </v>
   <v>       0.88911647       0.11068511       0.04460000 </v>
   <v>       0.77735180       0.55578315       0.95539999 </v>
   <v>       0.88911647       0.44401845       0.04460000 </v>
   <v>       0.77735180       0.88911647       0.95539999 </v>
   <v>       0.88911647       0.77735180       0.04460000 </v>
  </varray>
 </structure>
 <calculation>
  <scstep>
   <time name="dav">   21.80   21.86</time>
   <time name="total">   21.85   21.91</time>
   <energy>
    <i name="alphaZ">     81.65567618 </i>
    <i name="ewald">  41890.25210944 </i>
    <i name="hartreedc"> -47722.88715279 </i>
    <i name="XCdc">   -242.92854889 </i>
    <i name="pawpsdc">   3467.42045192 </i>
    <i name="pawaedc">  -2871.19716117 </i>
    <i name="eentropy">     -0.53089963 </i>
    <i name="bandstr">   -243.87392211 </i>
    <i name="atom">   6761.44252427 </i>
    <i name="e_fr_energy">   1119.35307722 </i>
    <i name="e_wo_entrp">   1119.88397685 </i>
    <i name="e_0_energy">   1119.61852704 </i>
   </energy>
  </scstep>
  <scstep>
   <time name="dav">   28.15   28.22</time>
   <time name="total">   28.16   28.23</time>
   <energy>
    <i name="e_fr_energy">     -5.25765806 </i>
    <i name="e_wo_entrp">     -5.04306918 </i>
    <i name="e_0_energy">     -5.15036362 </i>
   </energy>
  </scstep>
  <scstep>
   <time name="dav">   27.46   27.52</time>
   <time name="total">   27.46   27.53</time>
   <energy>
    <i name="e_fr_energy">   -199.81084322 </i>
    <i name="e_wo_entrp">   -199.55297137 </i>
    <i name="e_0_energy">   -199.68190730 </i>
   </energy>
  </scstep>
  <scstep>
   <time name="dav">   29.92   30.00</time>
   <time name="total">   29.93   30.00</time>
   <energy>
    <i name="e_fr_energy">   -208.98058750 </i>
    <i name="e_wo_entrp">   -208.69542054 </i>
    <i name="e_0_energy">   -208.83800402 </i>
   </energy>
  </scstep>
  <scstep>
   <time name="dav">   28.60   28.67</time>
   <time name="total">   29.07   29.14</time>
   <energy>
    <i name="e_fr_energy">   -209.31142905 </i>
    <i name="e_wo_entrp">   -209.02960801 </i>
    <i name="e_0_energy">   -209.17051853 </i>
   </energy>
  </scstep>
  <scstep>
   <time name="dav">   30.92   31.00</time>
   <time name="total">   31.42   31.51</time>
   <energy>
    <i name="e_fr_energy">   -237.17581118 </i>
    <i name="e_wo_entrp">   -236.90066686 </i>
    <i name="e_0_energy">   -237.03823902 </i>
   </energy>
  </scstep>
  <scstep>
   <time name="dav">   32.49   32.57</time>
   <time name="total">   32.99   33.08</time>
   <energy>
    <i name="e_fr_energy">   -196.49005921 </i>
    <i name="e_wo_entrp">   -196.16361890 </i>
    <i name="e_0_energy">   -196.32683905 </i>
   </energy>
  </scstep>
  <scstep>
   <time name="dav">   29.66   29.73</time>
   <time name="total">   30.17   30.25</time>
   <energy>
    <i name="e_fr_energy">   -189.44262094 </i>
    <i name="e_wo_entrp">   -189.15046210 </i>
    <i name="e_0_energy">   -189.29654152 </i>
   </energy>
  </scstep>
  <scstep>
   <time name="dav">   30.75   30.82</time>
   <time name="total">   31.27   31.35</time>
   <energy>
    <i name="e_fr_energy">   -188.23661482 </i>
    <i name="e_wo_entrp">   -187.91661113 </i>
    <i name="e_0_energy">   -188.07661298 </i>
   </energy>
  </scstep>
  <scstep>
   <time name="dav">   32.50   32.58</time>
   <time name="total">   33.03   33.11</time>
   <energy>
    <i name="e_fr_energy">   -187.08112131 </i>
    <i name="e_wo_entrp">   -186.73434778 </i>
    <i name="e_0_energy">   -186.90773455 </i>
   </energy>
  </scstep>
  <scstep>
   <time name="dav">   32.94   33.02</time>
   <time name="total">   33.47   33.55</time>
   <energy>
    <i name="e_fr_energy">   -187.03302622 </i>
    <i name="e_wo_entrp">   -186.68517326 </i>
    <i name="e_0_energy">   -186.85909974 </i>
   </energy>
  </scstep>
  <scstep>
   <time name="dav">   31.27   31.34</time>
   <time name="total">   31.79   31.88</time>
   <energy>
    <i name="e_fr_energy">   -187.17355528 </i>
    <i name="e_wo_entrp">   -186.83504232 </i>
    <i name="e_0_energy">   -187.00429880 </i>
   </energy>
  </scstep>
  <scstep>
   <time name="dav">   32.16   32.24</time>
   <time name="total">   32.70   32.78</time>
   <energy>
    <i name="e_fr_energy">   -186.93026305 </i>
    <i name="e_wo_entrp">   -186.59581576 </i>
    <i name="e_0_energy">   -186.76303940 </i>
   </energy>
  </scstep>
  <scstep>
   <time name="dav">   32.86   32.94</time>
   <time name="total">   33.39   33.48</time>
   <energy>
    <i name="e_fr_energy">   -186.88066180 </i>
    <i name="e_wo_entrp">   -186.53695405 </i>
    <i name="e_0_energy">   -186.70880792 </i>
   </energy>
  </scstep>
  <scstep>
   <time name="dav">   30.54   30.62</time>
   <time name="total">   31.07   31.15</time>
   <energy>
    <i name="e_fr_energy">   -186.87946950 </i>
    <i name="e_wo_entrp">   -186.53424379 </i>
    <i name="e_0_energy">   -186.70685665 </i>
   </energy>
  </scstep>
  <scstep>
   <time name="dav">   32.54   32.62</time>
   <time name="total">   33.07   33.16</time>
   <energy>
    <i name="e_fr_energy">   -186.87504528 </i>
    <i name="e_wo_entrp">   -186.52974690 </i>
    <i name="e_0_energy">   -186.70239609 </i>
   </energy>
  </scstep>
  <scstep>
   <time name="dav">   31.28   31.36</time>
   <time name="total">   31.81   31.90</time>
   <energy>
    <i name="e_fr_energy">   -186.87146552 </i>
    <i name="e_wo_entrp">   -186.52850935 </i>
    <i name="e_0_energy">   -186.69998744 </i>
   </energy>
  </scstep>
  <scstep>
   <time name="dav">   29.09   29.16</time>
   <time name="total">   29.62   29.70</time>
   <energy>
    <i name="e_fr_energy">   -186.87129653 </i>
    <i name="e_wo_entrp">   -186.52797797 </i>
    <i name="e_0_energy">   -186.69963725 </i>
   </energy>
  </scstep>
  <scstep>
   <time name="dav">   28.45   28.52</time>
   <time name="total">   28.98   29.06</time>
   <energy>
    <i name="e_fr_energy">   -186.87093680 </i>
    <i name="e_wo_entrp">   -186.52746270 </i>
    <i name="e_0_energy">   -186.69919975 </i>
   </energy>
  </scstep>
  <scstep>
   <time name="dav">   23.62   23.67</time>
   <time name="total">   24.15   24.22</time>
   <energy>
    <i name="e_fr_energy">   -186.87165968 </i>
    <i name="e_wo_entrp">   -186.52844087 </i>
    <i name="e_0_energy">   -186.70005028 </i>
   </energy>
  </scstep>
  <scstep>
   <time name="dav">   22.19   22.24</time>
   <time name="total">   22.72   22.78</time>
   <energy>
    <i name="e_fr_energy">   -186.87221168 </i>
    <i name="e_wo_entrp">   -186.52898791 </i>
    <i name="e_0_energy">   -186.70059980 </i>
   </energy>
  </scstep>
  <scstep>
   <time name="dav">   20.34   20.39</time>
   <time name="total">   20.87   20.93</time>
   <energy>
    <i name="e_fr_energy">   -186.87341118 </i>
    <i name="e_wo_entrp">   -186.53015765 </i>
    <i name="e_0_energy">   -186.70178442 </i>
   </energy>
  </scstep>
  <scstep>
   <time name="dav">   20.64   20.69</time>
   <time name="total">   21.17   21.23</time>
   <energy>
    <i name="e_fr_energy">   -186.87463922 </i>
    <i name="e_wo_entrp">   -186.53145608 </i>
    <i name="e_0_energy">   -186.70304765 </i>
   </energy>
  </scstep>
  <scstep>
   <time name="dav">   18.70   18.74</time>
   <time name="total">   19.23   19.28</time>
   <energy>
    <i name="e_fr_energy">   -186.87522901 </i>
    <i name="e_wo_entrp">   -186.53202861 </i>
    <i name="e_0_energy">   -186.70362881 </i>
   </energy>
  </scstep>
  <scstep>
   <time name="dav">   16.61   16.65</time>
   <time name="total">   17.14   17.19</time>
   <energy>
    <i name="e_fr_energy">   -186.87560806 </i>
    <i name="e_wo_entrp">   -186.53236565 </i>
    <i name="e_0_energy">   -186.70398685 </i>
   </energy>
  </scstep>
  <scstep>
   <time name="dav">   19.02   19.06</time>
   <time name="total">   19.55   19.60</time>
   <energy>
    <i name="e_fr_energy">   -186.87583250 </i>
    <i name="e_wo_entrp">   -186.53260389 </i>
    <i name="e_0_energy">   -186.70421820 </i>
   </energy>
  </scstep>
  <scstep>
   <time name="dav">   19.69   19.74</time>
   <time name="total">   19.72   19.78</time>
   <energy>
    <i name="alphaZ">     81.65567618 </i>
    <i name="ewald">  41890.25210944 </i>
    <i name="hartreedc"> -47833.01758113 </i>
    <i name="XCdc">   -231.60090976 </i>
    <i name="pawpsdc">   4192.11975186 </i>
    <i name="pawaedc">  -3610.13754844 </i>
    <i name="eentropy">     -0.34322374 </i>
    <i name="bandstr">  -1437.24672889 </i>
    <i name="atom">   6761.44252427 </i>
    <i name="e_fr_energy">   -186.87593021 </i>
    <i name="e_wo_entrp">   -186.53270647 </i>
    <i name="e_0_energy">   -186.70431834 </i>
   </energy>
  </scstep>
  <structure>
   <crystal>
    <varray name="basis" >
     <v>       8.66999996       5.03999989       0.00000000 </v>
     <v>      -8.66999982       5.04000013       0.00000000 </v>
     <v>       0.00000000       0.00000000      30.00000000 </v>
    </varray>
    <i name="volume">   2621.80797419 </i>
    <varray name="rec_basis" >
     <v>       0.05767013       0.09920635       0.00000000 </v>
     <v>      -0.05767013       0.09920635       0.00000000 </v>
     <v>       0.00000000       0.00000000       0.03333333 </v>
    </varray>
   </crystal>
   <varray name="positions" >
    <v>       0.33333334       0.33333334       0.00000000 </v>
    <v>       0.00000000       0.66666669       0.00000000 </v>
    <v>       1.00000000       0.33333334       0.00000000 </v>
    <v>       0.33333334       0.00000000       0.00000000 </v>
    <v>       0.66666669       0.33333334       0.00000000 </v>
    <v>       0.66666669       0.66666669       0.00000000 </v>
    <v>       0.00000000       0.00000000       0.00000000 </v>
    <v>       0.33333334       0.66666669       0.00000000 </v>
    <v>       0.66666669       0.00000000       0.00000000 </v>
    <v>       0.11068511       0.22244981       0.95539999 </v>
    <v>       0.22244981       0.11068511       0.04460000 </v>
    <v>       0.11068511       0.55578315       0.95539999 </v>
    <v>       0.22244981       0.44401845       0.04460000 </v>
    <v>       0.11068511       0.88911647       0.95539999 </v>
    <v>       0.22244981       0.77735180       0.04460000 </v>
    <v>       0.44401845       0.22244981       0.95539999 </v>
    <v>       0.55578315       0.11068511       0.04460000 </v>
    <v>       0.44401845       0.55578315       0.95539999 </v>
    <v>       0.55578315       0.44401845       0.04460000 </v>
    <v>       0.44401845       0.88911647       0.95539999 </v>
    <v>       0.55578315       0.77735180       0.04460000 </v>
    <v>       0.77735180       0.22244981       0.95539999 </v>
    <v>       0.88911647       0.11068511       0.04460000 </v>
    <v>       0.77735180       0.55578315       0.95539999 </v>
    <v>       0.88911647       0.44401845       0.04460000 </v>
    <v>       0.77735180       0.88911647       0.95539999 </v>
    <v>       0.88911647       0.77735180       0.04460000 </v>
   </varray>
  </structure>
  <varray name="forces" >
   <v>       0.37263763       0.19666768      -0.10002306 </v>
   <v>      -0.16215882      -0.17767954       0.11613470 </v>
   <v>      -0.20650489      -0.04094471       0.01552844 </v>
   <v>       0.01807166       0.27805653      -0.09506381 </v>
   <v>      -0.26910675      -0.08761929       0.02204598 </v>
   <v>       0.25984309      -0.14657608       0.07125331 </v>
   <v>       0.29842585      -0.04290034      -0.05832414 </v>
   <v>      -0.00194267       0.15563128       0.03202642 </v>
   <v>      -0.31440887      -0.15066864      -0.02189675 </v>
   <v>      -0.22842749       0.53219162      -1.41115792 </v>
   <v>      -0.62866363       0.54676002       2.13977329 </v>
   <v>      -0.23479701      -0.52285210      -1.40554000 </v>
   <v>       0.22904909      -0.51660991       1.38609712 </v>
   <v>       0.36125717      -0.68163219      -2.15211693 </v>
   <v>      -0.36952346      -0.72721613       2.13498295 </v>
   <v>      -0.77518888      -0.01240267      -2.16103469 </v>
   <v>       0.06189362       0.01772570       2.90051184 </v>
   <v>       0.37411524      -0.73368068      -2.16044363 </v>
   <v>      -0.52731269      -0.68152808       2.17553206 </v>
   <v>       0.25883058       0.01962009      -2.95206332 </v>
   <v>      -0.24907573       0.02211756       2.91852906 </v>
   <v>       0.62229981       0.53635260      -2.14083890 </v>
   <v>      -0.46680328       0.55125499       2.15582138 </v>
   <v>       0.53596293       0.69033419      -2.15491083 </v>
   <v>       0.31862997       0.69357033       1.42297639 </v>
   <v>       0.03539428       0.14180594      -2.84754593 </v>
   <v>       0.68750324       0.14022182       2.16974697 </v>
  </varray>
  <varray name="stress" >
   <v>       7.28574226       0.08782902      -1.54548959 </v>
   <v>       0.08782893       4.46657364       0.06264352 </v>
   <v>      -1.54548963       0.06264356      30.30586989 </v>
  </varray>
  <energy>
   <i name="e_fr_energy">   -186.87593021 </i>
   <i name="e_wo_entrp">   -186.70431834 </i>
   <i name="e_0_energy">     -0.34322374 </i>
  </energy>
  <time name="totalsc">  787.57  789.66</time>
 </calculation>
 <calculation>
  <scstep>
   <time name="dav">   21.71   21.76</time>
   <time name="total">   22.25   22.30</time>
   <energy>
    <i name="alphaZ">     78.92179698 </i>
    <i name="ewald">  39380.07769071 </i>
    <i name="hartreedc"> -45337.59101825 </i>
    <i name="XCdc">   -239.05664175 </i>
    <i name="pawpsdc">   4192.09122143 </i>
    <i name="pawaedc">  -3610.10938257 </i>
    <i name="eentropy">     -0.28169468 </i>
    <i name="bandstr">  -1412.99370714 </i>
    <i name="atom">   6761.44252427 </i>
    <i name="e_fr_energy">   -187.49921101 </i>
    <i name="e_wo_entrp">   -187.21751633 </i>
    <i name="e_0_energy">   -187.35836367 </i>
   </energy>
  </scstep>
  <scstep>
   <time name="dav">   30.29   30.36</time>
   <time name="total">   30.82   30.90</time>
   <energy>
    <i name="e_fr_energy">   -189.36052019 </i>
    <i name="e_wo_entrp">   -189.03593003 </i>
    <i name="e_0_energy">   -189.19822511 </i>
   </energy>
  </scstep>
  <scstep>
   <time name="dav">   30.42   30.49</time>
   <time name="total">   30.96   31.04</time>
   <energy>
    <i name="e_fr_energy">   -189.37891034 </i>
    <i name="e_wo_entrp">   -189.11350424 </i>
    <i name="e_0_energy">   -189.24620729 </i>
   </energy>
  </scstep>
  <scstep>
   <time name="dav">   30.48   30.55</time>
   <time name="total">   31.01   31.09</time>
   <energy>
    <i name="e_fr_energy">   -188.75554193 </i>
    <i name="e_wo_entrp">   -188.47268100 </i>
    <i name="e_0_energy">   -188.61411147 </i>
   </energy>
  </scstep>
  <scstep>
   <time name="dav">   28.76   28.82</time>
   <time name="total">   29.30   29.37</time>
   <energy>
    <i name="e_fr_energy">   -188.79873943 </i>
    <i name="e_wo_entrp">   -188.51838473 </i>
    <i name="e_0_energy">   -188.65856208 </i>
   </energy>
  </scstep>
  <scstep>
   <time name="dav">   31.28   31.36</time>
   <time name="total">   31.82   31.91</time>
   <energy>
    <i name="e_fr_energy">   -188.76269696 </i>
    <i name="e_wo_entrp">   -188.47422550 </i>
    <i name="e_0_energy">   -188.61846123 </i>
   </energy>
  </scstep>
  <scstep>
   <time name="dav">   31.23   31.30</time>
   <time name="total">   31.77   31.85</time>
   <energy>
    <i name="e_fr_energy">   -188.68990069 </i>
    <i name="e_wo_entrp">   -188.40866701 </i>
    <i name="e_0_energy">   -188.54928385 </i>
   </energy>
  </scstep>
  <scstep>
   <time name="dav">   29.02   29.09</time>
   <time name="total">   29.56   29.64</time>
   <energy>
    <i name="e_fr_energy">   -188.67476798 </i>
    <i name="e_wo_entrp">   -188.39176180 </i>
    <i name="e_0_energy">   -188.53326489 </i>
   </energy>
  </scstep>
  <scstep>
   <time name="dav">   30.13   30.20</time>
   <time name="total">   30.67   30.75</time>
   <energy>
    <i name="e_fr_energy">   -188.66984277 </i>
    <i name="e_wo_entrp">   -188.38915251 </i>
    <i name="e_0_energy">   -188.52949764 </i>
   </energy>
  </scstep>
  <scstep>
   <time name="dav">   32.56   32.64</time>
   <time name="total">   33.10   33.19</time>
   <energy>
    <i name="e_fr_energy">   -188.66828746 </i>
    <i name="e_wo_entrp">   -188.38780140 </i>
    <i name="e_0_energy">   -188.52804443 </i>
   </energy>
  </scstep>
  <scstep>
   <time name="dav">   31.23   31.31</time>
   <time name="total">   31.77   31.86</time>
   <energy>
    <i name="e_fr_energy">   -188.66764888 </i>
    <i name="e_wo_entrp">   -188.38804501 </i>
    <i name="e_0_energy">   -188.52784694 </i>
   </energy>
  </scstep>
  <scstep>
   <time name="dav">   28.78   28.85</time>
   <time name="total">   28.82   28.89</time>
   <energy>
    <i name="alphaZ">     78.92179698 </i>
    <i name="ewald">  39380.07769071 </i>
    <i name="hartreedc"> -45348.52686678 </i>
    <i name="XCdc">   -237.96765812 </i>
    <i name="pawpsdc">   3952.79066702 </i>
    <i name="pawaedc">  -3367.32990667 </i>
    <i name="eentropy">     -0.27956454 </i>
    <i name="bandstr">  -1407.79631224 </i>
    <i name="atom">   6761.44252427 </i>
    <i name="e_fr_energy">   -188.66762937 </i>
    <i name="e_wo_entrp">   -188.38806483 </i>
    <i name="e_0_energy">   -188.52784710 </i>
   </energy>
  </scstep>
  <structure>
   <crystal>
    <varray name="basis" >
     <v>       8.85598732       5.10804709       0.00000000 </v>
     <v>      -8.85339863       5.10359442       0.00000000 </v>
     <v>       0.00000000       0.00000000      30.00000000 </v>
    </varray>
    <i name="volume">   2712.62833750 </i>
    <varray name="rec_basis" >
     <v>       0.05644261       0.09791314       0.00000000 </v>
     <v>      -0.05649186       0.09794177       0.00000000 </v>
     <v>       0.00000000       0.00000000       0.03333333 </v>
    </varray>
   </crystal>
   <varray name="positions" >
    <v>       0.33531133       0.33323785      -0.00016085 </v>
    <v>      -0.00130152       0.66626747       0.00018675 </v>
    <v>       0.99922951       0.33371191       0.00002497 </v>
    <v>       0.33471439       0.00128049      -0.00015287 </v>
    <v>       0.66549864       0.33366270       0.00003545 </v>
    <v>       0.66668810       0.66524225       0.00011458 </v>
    <v>       0.00062495      -0.00103559      -0.00009379 </v>
    <v>       0.33407279       0.66741694       0.00005150 </v>
    <v>       0.66507085       0.00015364      -0.00003521 </v>
    <v>       0.11259665       0.22563239       0.95313072 </v>
    <v>       0.22331755       0.11505093       0.04804094 </v>
    <v>       0.10752951       0.55393404       0.95313976 </v>
    <v>       0.22061458       0.44090872       0.04682897 </v>
    <v>       0.10842791       0.88484911       0.95193920 </v>
    <v>       0.21794130       0.77489943       0.04803324 </v>
    <v>       0.44180239       0.22454715       0.95192486 </v>
    <v>       0.55604019       0.11059775       0.04926428 </v>
    <v>       0.44154792       0.55123092       0.95192581 </v>
    <v>       0.55105431       0.44222374       0.04809845 </v>
    <v>       0.44483246       0.88849026       0.95065281 </v>
    <v>       0.55519604       0.77815062       0.04929325 </v>
    <v>       0.78165011       0.22328544       0.95195733 </v>
    <v>       0.89045604       0.11462213       0.04806675 </v>
    <v>       0.78214686       0.55759594       0.95193470 </v>
    <v>       0.89332236       0.44645139       0.04688827 </v>
    <v>       0.77812895       0.88969667       0.95082088 </v>
    <v>       0.89170031       0.77611015       0.04808914 </v>
   </varray>
  </structure>
  <varray name="forces" >
   <v>       0.33999927       0.19086542      -0.03014303 </v>
   <v>      -0.22151503      -0.15794537       0.04081938 </v>
   <v>      -0.13831659      -0.08055001       0.01612716 </v>
   <v>       0.20975858       0.35237838       0.03608328 </v>
   <v>      -0.22316284      -0.23255840      -0.00419510 </v>
   <v>       0.13643938      -0.05027436      -0.04385168 </v>
   <v>       0.22595904      -0.16146960      -0.08620370 </v>
   <v>      -0.00789360       0.45027057       0.09916430 </v>
   <v>      -0.32045052      -0.32018620      -0.00170776 </v>
   <v>       0.07027411      -0.06631042       0.18840674 </v>
   <v>      -0.09470010      -0.04693907      -0.06363511 </v>
   <v>       0.05429289       0.07968598       0.15484172 </v>
   <v>      -0.05193167       0.07910718      -0.22906053 </v>
   <v>      -0.09784674      -0.05325806       0.03141519 </v>
   <v>       0.11620529      -0.05283652      -0.10771193 </v>
   <v>      -0.08084700       0.01069889      -0.21398730 </v>
   <v>       0.12680577       0.00887683       0.13734830 </v>
   <v>      -0.10535268      -0.07499925       0.02856133 </v>
   <v>      -0.03449267      -0.07898193       0.15494148 </v>
   <v>       0.10107190       0.00081180      -0.15410994 </v>
   <v>      -0.10115899       0.00450814       0.03289554 </v>
   <v>       0.06236090      -0.04562150       0.04375316 </v>
   <v>       0.06294041      -0.06871172      -0.17033857 </v>
   <v>       0.04549947       0.06676807      -0.04660641 </v>
   <v>      -0.00879591       0.04478825      -0.03817433 </v>
   <v>      -0.07294973       0.10255864       0.11255594 </v>
   <v>       0.00780706       0.09932427       0.11281189 </v>
  </varray>
  <varray name="stress" >
   <v>     -20.00291953       0.00172787       0.04142388 </v>
   <v>       0.00172804     -19.59709915      -0.03195305 </v>
   <v>       0.04142382      -0.03195305      -1.80546653 </v>
  </varray>
  <energy>
   <i name="e_fr_energy">   -188.66762937 </i>
   <i name="e_wo_entrp">   -188.52784710 </i>
   <i name="e_0_energy">     -0.27956454 </i>
  </energy>
  <time name="totalsc">  403.45  404.50</time>
 </calculation>
 <calculation>
  <scstep>
   <time name="dav">   23.82   23.88</time>
   <time name="total">   24.36   24.41</time>
   <energy>
    <i name="alphaZ">     82.34564537 </i>
    <i name="ewald">  41302.74212359 </i>
    <i name="hartreedc"> -47301.71123682 </i>
    <i name="XCdc">   -233.85012533 </i>
    <i name="pawpsdc">   3950.51600568 </i>
    <i name="pawaedc">  -3365.02928902 </i>
    <i name="eentropy">     -0.23301262 </i>
    <i name="bandstr">  -1386.80707065 </i>
    <i name="atom">   6761.44252427 </i>
    <i name="e_fr_energy">   -190.58443554 </i>
    <i name="e_wo_entrp">   -190.35142291 </i>
    <i name="e_0_energy">   -190.46792923 </i>
   </energy>
  </scstep>
  <scstep>
   <time name="dav">   27.62   27.68</time>
   <time name="total">   28.14   28.21</time>
   <energy>
    <i name="e_fr_energy">   -190.56461227 </i>
    <i name="e_wo_entrp">   -190.33663461 </i>
    <i name="e_0_energy">   -190.45062344 </i>
   </energy>
  </scstep>
  <scstep>
   <time name="dav">   30.15   30.22</time>
   <time name="total">   30.67   30.75</time>
   <energy>
    <i name="e_fr_energy">   -190.05973281 </i>
    <i name="e_wo_entrp">   -189.81110576 </i>
    <i name="e_0_energy">   -189.93541929 </i>
   </energy>
  </scstep>
  <scstep>
   <time name="dav">   31.20   31.27</time>
   <time name="total">   31.73   31.81</time>
   <energy>
    <i name="e_fr_energy">   -189.85401582 </i>
    <i name="e_wo_entrp">   -189.62531155 </i>
    <i name="e_0_energy">   -189.73966369 </i>
   </energy>
  </scstep>
  <scstep>
   <time name="dav">   27.62   27.69</time>
   <time name="total">   28.15   28.22</time>
   <energy>
    <i name="e_fr_energy">   -189.78797413 </i>
    <i name="e_wo_entrp">   -189.54572415 </i>
    <i name="e_0_energy">   -189.66684914 </i>
   </energy>
  </scstep>
  <scstep>
   <time name="dav">   30.98   31.05</time>
   <time name="total">   31.51   31.59</time>
   <energy>
    <i name="e_fr_energy">   -189.75817325 </i>
    <i name="e_wo_entrp">   -189.52568826 </i>
    <i name="e_0_energy">   -189.64193076 </i>
   </energy>
  </scstep>
  <scstep>
   <time name="dav">   30.70   30.77</time>
   <time name="total">   31.23   31.31</time>
   <energy>
    <i name="e_fr_energy">   -189.75033211 </i>
    <i name="e_wo_entrp">   -189.51547942 </i>
    <i name="e_0_energy">   -189.63290576 </i>
   </energy>
  </scstep>
  <scstep>
   <time name="dav">   27.81   27.88</time>
   <time name="total">   28.35   28.42</time>
   <energy>
    <i name="e_fr_energy">   -189.75033724 </i>
    <i name="e_wo_entrp">   -189.51581358 </i>
    <i name="e_0_energy">   -189.63307541 </i>
   </energy>
  </scstep>
  <scstep>
   <time name="dav">   26.62   26.69</time>
   <time name="total">   27.15   27.23</time>
   <energy>
    <i name="e_fr_energy">   -189.75094769 </i>
    <i name="e_wo_entrp">   -189.51616107 </i>
    <i name="e_0_energy">   -189.63355438 </i>
   </energy>
  </scstep>
  <scstep>
   <time name="dav">   26.70   26.77</time>
   <time name="total">   27.23   27.31</time>
   <energy>
    <i name="e_fr_energy">   -189.75074618 </i>
    <i name="e_wo_entrp">   -189.51586248 </i>
    <i name="e_0_energy">   -189.63330433 </i>
   </energy>
  </scstep>
  <scstep>
   <time name="dav">   22.95   23.01</time>
   <time name="total">   23.48   23.55</time>
   <energy>
    <i name="e_fr_energy">   -189.75045492 </i>
    <i name="e_wo_entrp">   -189.51562949 </i>
    <i name="e_0_energy">   -189.63304221 </i>
   </energy>
  </scstep>
  <scstep>
   <time name="dav">   18.84   18.89</time>
   <time name="total">   18.88   18.93</time>
   <energy>
    <i name="alphaZ">     82.34564537 </i>
    <i name="ewald">  41302.74212359 </i>
    <i name="hartreedc"> -47274.99122766 </i>
    <i name="XCdc">   -235.24526696 </i>
    <i name="pawpsdc">   4038.48495948 </i>
    <i name="pawaedc">  -3454.18836262 </i>
    <i name="eentropy">     -0.23480712 </i>
    <i name="bandstr">  -1410.10605968 </i>
    <i name="atom">   6761.44252427 </i>
    <i name="e_fr_energy">   -189.75047133 </i>
    <i name="e_wo_entrp">   -189.51566421 </i>
    <i name="e_0_energy">   -189.63306777 </i>
   </energy>
  </scstep>
  <structure>
   <crystal>
    <varray name="basis" >
     <v>       8.66802396       5.00184215       0.00000000 </v>
     <v>      -8.66547150       4.99744960       0.00000000 </v>
     <v>       0.00000000       0.00000000      30.00000000 </v>
    </varray>
    <i name="volume">   2599.84000351 </i>
    <varray name="rec_basis" >
     <v>       0.05766643       0.09999236       0.00000000 </v>
     <v>      -0.05771712       0.10002182       0.00000000 </v>
     <v>       0.00000000       0.00000000       0.03333333 </v>
    </varray>
   </crystal>
   <varray name="positions" >
    <v>       0.33595231       0.33322916      -0.00017785 </v>
    <v>      -0.00177479       0.66621745       0.00020978 </v>
    <v>       0.99896394       0.33371064       0.00003407 </v>
    <v>       0.33549858       0.00166399      -0.00013252 </v>
    <v>       0.66490018       0.33349060       0.00003309 </v>
    <v>       0.66673512       0.66502850       0.00008985 </v>
    <v>       0.00057323      -0.00151921      -0.00014241 </v>
    <v>       0.33481129       0.66817074       0.00010744 </v>
    <v>       0.66423428      -0.00007069      -0.00003618 </v>
    <v>       0.11255390       0.22545531       0.95323700 </v>
    <v>       0.22314933       0.11506367       0.04800505 </v>
    <v>       0.10771339       0.55401420       0.95322710 </v>
    <v>       0.22069605       0.44108947       0.04669976 </v>
    <v>       0.10824621       0.88485438       0.95195692 </v>
    <v>       0.21796474       0.77470077       0.04797248 </v>
    <v>       0.44174290       0.22464217       0.95180415 </v>
    <v>       0.55617601       0.11049124       0.04934175 </v>
    <v>       0.44132303       0.55120734       0.95194192 </v>
    <v>       0.55089050       0.44212582       0.04818584 </v>
    <v>       0.44493034       0.88839499       0.95056588 </v>
    <v>       0.55510689       0.77825479       0.04931181 </v>
    <v>       0.78163408       0.22315022       0.95198201 </v>
    <v>       0.89040231       0.11444808       0.04797067 </v>
    <v>       0.78230094       0.55766311       0.95190841 </v>
    <v>       0.89338817       0.44653402       0.04686674 </v>
    <v>       0.77822920       0.88993639       0.95088437 </v>
    <v>       0.89187233       0.77626730       0.04815278 </v>
   </varray>
  </structure>
  <varray name="forces" >
   <v>       0.34325648       0.17923728      -0.00387890 </v>
   <v>      -0.26663196      -0.14357330       0.01241606 </v>
   <v>      -0.11508975      -0.11094453       0.01099247 </v>
   <v>       0.27477115       0.36824626       0.05010060 </v>
   <v>      -0.19445850      -0.27780123      -0.01153661 </v>
   <v>       0.09698811       0.00028327      -0.05307576 </v>
   <v>       0.19857012      -0.20534054      -0.06625814 </v>
   <v>      -0.02166458       0.53897162       0.08355083 </v>
   <v>      -0.31714482      -0.37591354      -0.00023596 </v>
   <v>      -0.01000938       0.06885992      -0.25921543 </v>
   <v>      -0.08948754       0.07802122       0.42102651 </v>
   <v>      -0.02061884      -0.04256554      -0.28464227 </v>
   <v>       0.02896807      -0.05312883       0.21144295 </v>
   <v>       0.04522647      -0.10740285      -0.45949674 </v>
   <v>      -0.01153988      -0.10717369       0.38232483 </v>
   <v>      -0.14685706       0.01334213      -0.72475150 </v>
   <v>       0.03860036       0.02150268       0.70110537 </v>
   <v>       0.00499247      -0.13328062      -0.46831210 </v>
   <v>      -0.07404877      -0.14332617       0.65207638 </v>
   <v>       0.02101997      -0.00482884      -0.73988080 </v>
   <v>      -0.01567657       0.01892030       0.59844667 </v>
   <v>       0.04968083       0.08379936      -0.44625737 </v>
   <v>      -0.00450329       0.04657741       0.31464497 </v>
   <v>       0.09331086       0.12390939      -0.53171418 </v>
   <v>       0.02082377       0.09522277       0.40709724 </v>
   <v>      -0.04529836       0.03987178      -0.42498845 </v>
   <v>       0.11682066       0.02851428       0.62901933 </v>
  </varray>
  <varray name="stress" >
   <v>     -10.17272203      -0.02542559       0.01107339 </v>
   <v>      -0.02542556      -9.86377815      -0.05175853 </v>
   <v>       0.01107335      -0.05175836       6.50507000 </v>
  </varray>
  <energy>
   <i name="e_fr_energy">   -189.75047133 </i>
   <i name="e_wo_entrp">   -189.63306777 </i>
   <i name="e_0_energy">     -0.23480712 </i>
  </energy>
  <time name="totalsc">  372.67  373.65</time>
 </calculation>
 <calculation>
  <scstep>
   <time name="dav">   21.71   21.77</time>
   <time name="total">   22.23   22.29</time>
   <energy>
    <i name="alphaZ">     85.80615158 </i>
    <i name="ewald">  42825.15081811 </i>
    <i name="hartreedc"> -48841.76618996 </i>
    <i name="XCdc">   -232.97376515 </i>
    <i name="pawpsdc">   4038.63380348 </i>
    <i name="pawaedc">  -3454.33503013 </i>
    <i name="eentropy">     -0.19146389 </i>
    <i name="bandstr">  -1373.05421256 </i>
    <i name="atom">   6761.44252427 </i>
    <i name="e_fr_energy">   -191.28736425 </i>
    <i name="e_wo_entrp">   -191.09590037 </i>
    <i name="e_0_energy">   -191.19163231 </i>
   </energy>
  </scstep>
  <scstep>
   <time name="dav">   32.63   32.71</time>
   <time name="total">   33.14   33.23</time>
   <energy>
    <i name="e_fr_energy">   -191.17934493 </i>
    <i name="e_wo_entrp">   -190.98071994 </i>
    <i name="e_0_energy">   -191.08003244 </i>
   </energy>
  </scstep>
  <scstep>
   <time name="dav">   28.94   29.01</time>
   <time name="total">   29.45   29.53</time>
   <energy>
    <i name="e_fr_energy">   -191.22780189 </i>
    <i name="e_wo_entrp">   -191.01648686 </i>
    <i name="e_0_energy">   -191.12214437 </i>
   </energy>
  </scstep>
  <scstep>
   <time name="dav">   30.71   30.78</time>
   <time name="total">   31.22   31.30</time>
   <energy>
    <i name="e_fr_energy">   -190.90419348 </i>
    <i name="e_wo_entrp">   -190.69446756 </i>
    <i name="e_0_energy">   -190.79933052 </i>
   </energy>
  </scstep>
  <scstep>
   <time name="dav">   27.90   27.97</time>
   <time name="total">   28.42   28.49</time>
   <energy>
    <i name="e_fr_energy">   -190.89088695 </i>
    <i name="e_wo_entrp">   -190.70516273 </i>
    <i name="e_0_energy">   -190.79802484 </i>
   </energy>
  </scstep>
  <scstep>
   <time name="dav">   28.06   28.13</time>
   <time name="total">   28.58   28.65</time>
   <energy>
    <i name="e_fr_energy">   -190.70865502 </i>
    <i name="e_wo_entrp">   -190.51097411 </i>
    <i name="e_0_energy">   -190.60981456 </i>
   </energy>
  </scstep>
  <scstep>
   <time name="dav">   28.30   28.36</time>
   <time name="total">   28.81   28.89</time>
   <energy>
    <i name="e_fr_energy">   -190.70704156 </i>
    <i name="e_wo_entrp">   -190.51050324 </i>
    <i name="e_0_energy">   -190.60877240 </i>
   </energy>
  </scstep>
  <scstep>
   <time name="dav">   25.88   25.95</time>
   <time name="total">   26.40   26.47</time>
   <energy>
    <i name="e_fr_energy">   -190.70365409 </i>
    <i name="e_wo_entrp">   -190.50652955 </i>
    <i name="e_0_energy">   -190.60509182 </i>
   </energy>
  </scstep>
  <scstep>
   <time name="dav">   30.37   30.44</time>
   <time name="total">   30.89   30.97</time>
   <energy>
    <i name="e_fr_energy">   -190.70427205 </i>
    <i name="e_wo_entrp">   -190.50718936 </i>
    <i name="e_0_energy">   -190.60573071 </i>
   </energy>
  </scstep>
  <scstep>
   <time name="dav">   27.34   27.40</time>
   <time name="total">   27.85   27.92</time>
   <energy>
    <i name="e_fr_energy">   -190.70399202 </i>
    <i name="e_wo_entrp">   -190.50691727 </i>
    <i name="e_0_energy">   -190.60545465 </i>
   </energy>
  </scstep>
  <scstep>
   <time name="dav">   25.96   26.02</time>
   <time name="total">   26.47   26.55</time>
   <energy>
    <i name="e_fr_energy">   -190.70385184 </i>
    <i name="e_wo_entrp">   -190.50678478 </i>
    <i name="e_0_energy">   -190.60531831 </i>
   </energy>
  </scstep>
  <scstep>
   <time name="dav">   20.10   20.15</time>
   <time name="total">   20.14   20.19</time>
   <energy>
    <i name="alphaZ">     85.80615158 </i>
    <i name="ewald">  42825.15081811 </i>
    <i name="hartreedc"> -48813.28937057 </i>
    <i name="XCdc">   -234.30506765 </i>
    <i name="pawpsdc">   4062.82176342 </i>
    <i name="pawaedc">  -3478.68896864 </i>
    <i name="eentropy">     -0.19714744 </i>
    <i name="bandstr">  -1399.44456260 </i>
    <i name="atom">   6761.44252427 </i>
    <i name="e_fr_energy">   -190.70385953 </i>
    <i name="e_wo_entrp">   -190.50671209 </i>
    <i name="e_0_energy">   -190.60528581 </i>
   </energy>
  </scstep>
  <structure>
   <crystal>
    <varray name="basis" >
     <v>       8.48664775       4.90113165       0.00000000 </v>
     <v>      -8.48551334       4.89919241       0.00000000 </v>
     <v>       0.00000000       0.00000000      30.00000000 </v>
    </varray>
    <i name="volume">   2494.99014927 </i>
    <varray name="rec_basis" >
     <v>       0.05890836       0.10203062       0.00000000 </v>
     <v>      -0.05893168       0.10204426       0.00000000 </v>
     <v>       0.00000000       0.00000000       0.03333333 </v>
    </varray>
   </crystal>
   <varray name="positions" >
    <v>       0.33828633       0.33307748      -0.00016358 </v>
    <v>      -0.00366284       0.66638263       0.00021134 </v>
    <v>       0.99781296       0.33332307       0.00005243 </v>
    <v>       0.33892449       0.00292121      -0.00001710 </v>
    <v>       0.66239073       0.33230116       0.00000302 </v>
    <v>       0.66715594       0.66486296      -0.00002765 </v>
    <v>      -0.00014310      -0.00358996      -0.00026241 </v>
    <v>       0.33830388       0.67186029       0.00026684 </v>
    <v>       0.66060645      -0.00142049      -0.00003541 </v>
    <v>       0.11316979       0.22637439       0.95232163 </v>
    <v>       0.22363326       0.11617853       0.04928620 </v>
    <v>       0.10696070       0.55362542       0.95226609 </v>
    <v>       0.22025506       0.44020677       0.04751037 </v>
    <v>       0.10780845       0.88367886       0.95059096 </v>
    <v>       0.21693422       0.77412043       0.04917822 </v>
    <v>       0.44120851       0.22535713       0.94987324 </v>
    <v>       0.55635439       0.11064467       0.05126876 </v>
    <v>       0.44052109       0.55005194       0.95055269 </v>
    <v>       0.54951030       0.44139327       0.04995502 </v>
    <v>       0.44484691       0.88838995       0.94854007 </v>
    <v>       0.55532734       0.77834272       0.05102820 </v>
    <v>       0.78264139       0.22383577       0.95064418 </v>
    <v>       0.89086766       0.11513993       0.04903227 </v>
    <v>       0.78362312       0.55817489       0.95039816 </v>
    <v>       0.89422678       0.44713747       0.04808569 </v>
    <v>       0.77819863       0.89015321       0.94955017 </v>
    <v>       0.89245200       0.77569077       0.04989049 </v>
   </varray>
  </structure>
  <varray name="forces" >
   <v>       0.30474647       0.14003044       0.04933402 </v>
   <v>      -0.30557979      -0.18856450      -0.04344081 </v>
   <v>      -0.08683939      -0.10287291       0.00421437 </v>
   <v>       0.36659389       0.40497494       0.02370072 </v>
   <v>      -0.14835416      -0.28993611      -0.01569589 </v>
   <v>       0.08500189       0.04447390      -0.02900355 </v>
   <v>       0.16795207      -0.21864724      -0.01856887 </v>
   <v>      -0.04771962       0.55999839       0.02395891 </v>
   <v>      -0.35161080      -0.41541228       0.00627160 </v>
   <v>       0.03006490       0.03054129      -0.18273686 </v>
   <v>       0.00798698       0.02771617       0.22384966 </v>
   <v>      -0.00480716       0.03632596      -0.14162249 </v>
   <v>       0.01342531       0.03999260       0.09464779 </v>
   <v>       0.08674518      -0.00034970      -0.26413494 </v>
   <v>      -0.02432858       0.00164686       0.24355849 </v>
   <v>      -0.02906357       0.00180913      -0.55266754 </v>
   <v>      -0.02292679       0.05414097       0.54719664 </v>
   <v>       0.00482720      -0.03179287      -0.30279295 </v>
   <v>      -0.02613604      -0.04192597       0.44293555 </v>
   <v>      -0.03481214      -0.00006507      -0.60193955 </v>
   <v>       0.04555078       0.05303551       0.45591316 </v>
   <v>      -0.02925171      -0.01027388      -0.29542233 </v>
   <v>      -0.00841371      -0.03606290       0.17043218 </v>
   <v>       0.05050236      -0.00187415      -0.36854174 </v>
   <v>      -0.05391866      -0.01287753       0.32369938 </v>
   <v>      -0.04134373      -0.01210944      -0.26338506 </v>
   <v>       0.05170881      -0.03192160       0.47024010 </v>
  </varray>
  <varray name="stress" >
   <v>      -5.87110515       0.10232724      -0.04483877 </v>
   <v>       0.10232714      -5.84008958       0.04602313 </v>
   <v>      -0.04483871       0.04602315       4.50691784 </v>
  </varray>
  <energy>
   <i name="e_fr_energy">   -190.70385953 </i>
   <i name="e_wo_entrp">   -190.60528581 </i>
   <i name="e_0_energy">     -0.19714744 </i>
  </energy>
  <time name="totalsc">  375.45  376.43</time>
 </calculation>
 <calculation>
  <scstep>
   <time name="dav">   21.72   21.77</time>
   <time name="total">   22.23   22.28</time>
   <energy>
    <i name="alphaZ">     90.30347937 </i>
    <i name="ewald">  44721.45324912 </i>
    <i name="hartreedc"> -50766.58433823 </i>
    <i name="XCdc">   -231.74947989 </i>
    <i name="pawpsdc">   4062.79645694 </i>
    <i name="pawaedc">  -3478.65951013 </i>
    <i name="eentropy">     -0.17795221 </i>
    <i name="bandstr">  -1350.94872620 </i>
    <i name="atom">   6761.44252427 </i>
    <i name="e_fr_energy">   -192.12429695 </i>
    <i name="e_wo_entrp">   -191.94634474 </i>
    <i name="e_0_energy">   -192.03532085 </i>
   </energy>
  </scstep>
  <scstep>
   <time name="dav">   30.00   30.07</time>
   <time name="total">   30.51   30.59</time>
   <energy>
    <i name="e_fr_energy">   -191.96766406 </i>
    <i name="e_wo_entrp">   -191.76808470 </i>
    <i name="e_0_energy">   -191.86787438 </i>
   </energy>
  </scstep>
  <scstep>
   <time name="dav">   30.04   30.12</time>
   <time name="total">   30.55   30.63</time>
   <energy>
    <i name="e_fr_energy">   -192.42417900 </i>
    <i name="e_wo_entrp">   -192.23291790 </i>
    <i name="e_0_energy">   -192.32854845 </i>
   </energy>
  </scstep>
  <scstep>
   <time name="dav">   30.23   30.30</time>
   <time name="total">   30.74   30.82</time>
   <energy>
    <i name="e_fr_energy">   -191.54542139 </i>
    <i name="e_wo_entrp">   -191.36484695 </i>
    <i name="e_0_energy">   -191.45513417 </i>
   </energy>
  </scstep>
  <scstep>
   <time name="dav">   29.15   29.22</time>
   <time name="total">   29.65   29.73</time>
   <energy>
    <i name="e_fr_energy">   -191.51739988 </i>
    <i name="e_wo_entrp">   -191.31967277 </i>
    <i name="e_0_energy">   -191.41853632 </i>
   </energy>
  </scstep>
  <scstep>
   <time name="dav">   29.98   30.05</time>
   <time name="total">   30.48   30.56</time>
   <energy>
    <i name="e_fr_energy">   -191.37547931 </i>
    <i name="e_wo_entrp">   -191.19251352 </i>
    <i name="e_0_energy">   -191.28399641 </i>
   </energy>
  </scstep>
  <scstep>
   <time name="dav">   29.41   29.48</time>
   <time name="total">   29.92   30.00</time>
   <energy>
    <i name="e_fr_energy">   -191.35032013 </i>
    <i name="e_wo_entrp">   -191.16478266 </i>
    <i name="e_0_energy">   -191.25755140 </i>
   </energy>
  </scstep>
  <scstep>
   <time name="dav">   29.72   29.79</time>
   <time name="total">   30.22   30.31</time>
   <energy>
    <i name="e_fr_energy">   -191.34887085 </i>
    <i name="e_wo_entrp">   -191.16159315 </i>
    <i name="e_0_energy">   -191.25523200 </i>
   </energy>
  </scstep>
  <scstep>
   <time name="dav">   28.37   28.44</time>
   <time name="total">   28.88   28.95</time>
   <energy>
    <i name="e_fr_energy">   -191.34316845 </i>
    <i name="e_wo_entrp">   -191.15680604 </i>
    <i name="e_0_energy">   -191.24998725 </i>
   </energy>
  </scstep>
  <scstep>
   <time name="dav">   28.85   28.92</time>
   <time name="total">   29.36   29.44</time>
   <energy>
    <i name="e_fr_energy">   -191.34329089 </i>
    <i name="e_wo_entrp">   -191.15660372 </i>
    <i name="e_0_energy">   -191.24994731 </i>
   </energy>
  </scstep>
  <scstep>
   <time name="dav">   27.00   27.06</time>
   <time name="total">   27.50   27.58</time>
   <energy>
    <i name="e_fr_energy">   -191.34316375 </i>
    <i name="e_wo_entrp">   -191.15616780 </i>
    <i name="e_0_energy">   -191.24966577 </i>
   </energy>
  </scstep>
  <scstep>
   <time name="dav">   19.89   19.93</time>
   <time name="total">   19.92   19.98</time>
   <energy>
    <i name="alphaZ">     90.30347937 </i>
    <i name="ewald">  44721.45324912 </i>
    <i name="hartreedc"> -50731.39070887 </i>
    <i name="XCdc">   -233.34019772 </i>
    <i name="pawpsdc">   4084.90520606 </i>
    <i name="pawaedc">  -3500.84695991 </i>
    <i name="eentropy">     -0.18687307 </i>
    <i name="bandstr">  -1383.68284395 </i>
    <i name="atom">   6761.44252427 </i>
    <i name="e_fr_energy">   -191.34312470 </i>
    <i name="e_wo_entrp">   -191.15625162 </i>
    <i name="e_0_energy">   -191.24968816 </i>
   </energy>
  </scstep>
  <structure>
   <crystal>
    <varray name="basis" >
     <v>       8.27429050       4.78280210       0.00000000 </v>
     <v>      -8.26778468       4.77156067       0.00000000 </v>
     <v>       0.00000000       0.00000000      30.00000000 </v>
    </varray>
    <i name="volume">   2370.73371280 </i>
    <varray name="rec_basis" >
     <v>       0.06038081       0.10462311       0.00000000 </v>
     <v>      -0.06052306       0.10470544       0.00000000 </v>
     <v>       0.00000000       0.00000000       0.03333333 </v>
    </varray>
   </crystal>
   <varray name="positions" >
    <v>       0.34232558       0.33261501       0.00003556 </v>
    <v>      -0.00815996       0.66639036       0.00003556 </v>
    <v>       0.99580119       0.33254482       0.00006816 </v>
    <v>       0.34666443       0.00530889       0.00010858 </v>
    <v>       0.65756923       0.32962034      -0.00006633 </v>
    <v>       0.66834861       0.66493675      -0.00016885 </v>
    <v>      -0.00179468      -0.00764107      -0.00034424 </v>
    <v>       0.34521352       0.67945831       0.00038167 </v>
    <v>       0.65279070      -0.00422323      -0.00001186 </v>
    <v>       0.11406242       0.22718790       0.95107684 </v>
    <v>       0.22441120       0.11701585       0.05080315 </v>
    <v>       0.10673599       0.55375994       0.95116107 </v>
    <v>       0.22045373       0.43990108       0.04840998 </v>
    <v>       0.10829244       0.88249483       0.94890397 </v>
    <v>       0.21622219       0.77417604       0.05074909 </v>
    <v>       0.44081813       0.22584853       0.94699932 </v>
    <v>       0.55675807       0.11156307       0.05416426 </v>
    <v>       0.43999947       0.54907930       0.94871801 </v>
    <v>       0.54831344       0.44080607       0.05238686 </v>
    <v>       0.44448619       0.88869916       0.94540716 </v>
    <v>       0.55639386       0.77857579       0.05354611 </v>
    <v>       0.78290512       0.22441092       0.94885469 </v>
    <v>       0.89072837       0.11534748       0.05030204 </v>
    <v>       0.78447647       0.55804715       0.94830796 </v>
    <v>       0.89413583       0.44757761       0.04990814 </v>
    <v>       0.77769273       0.89015861       0.94783733 </v>
    <v>       0.89257017       0.77455494       0.05242567 </v>
   </varray>
  </structure>
  <varray name="forces" >
   <v>       0.18310241       0.07833182      -0.01150205 </v>
   <v>      -0.26502832      -0.32676520      -0.00860336 </v>
   <v>      -0.06230065      -0.06274612       0.00471621 </v>
   <v>       0.24072329       0.23371901      -0.05890230 </v>
   <v>      -0.00755423      -0.09621402       0.02547863 </v>
   <v>       0.06594659       0.09124076       0.03013267 </v>
   <v>       0.03959054      -0.20285041      -0.01720475 </v>
   <v>      -0.03875095       0.32648153      -0.02118340 </v>
   <v>      -0.18792971      -0.16365164       0.08833282 </v>
   <v>       0.08333625      -0.03026858       0.07124963 </v>
   <v>       0.15725659      -0.05360551      -0.07503896 </v>
   <v>      -0.00376564       0.13099614       0.11776020 </v>
   <v>      -0.01407102       0.18029942      -0.13336878 </v>
   <v>       0.09452878       0.11924877       0.08872210 </v>
   <v>       0.00400576       0.13355469      -0.09099152 </v>
   <v>       0.07910129      -0.02611337      -0.14687948 </v>
   <v>      -0.01236160       0.09853866       0.23451515 </v>
   <v>      -0.02915364       0.07740398       0.00685662 </v>
   <v>       0.02689898       0.05222939       0.08595767 </v>
   <v>      -0.07617113       0.02435692      -0.34103531 </v>
   <v>       0.07224102       0.10523656       0.16848861 </v>
   <v>      -0.07705116      -0.15835352      -0.02426865 </v>
   <v>      -0.00983060      -0.17861715      -0.07684313 </v>
   <v>      -0.02676956      -0.14824821      -0.11110499 </v>
   <v>      -0.11378568      -0.09104627       0.03005068 </v>
   <v>      -0.10729336      -0.03821439       0.01434800 </v>
   <v>      -0.01491426      -0.07494326       0.15031772 </v>
  </varray>
  <varray name="stress" >
   <v>      -0.22486072       0.22112497       0.17876344 </v>
   <v>       0.22112498       0.15941577       0.24779094 </v>
   <v>       0.17876330       0.24779077      -0.48564872 </v>
  </varray>
  <energy>
   <i name="e_fr_energy">   -191.34312470 </i>
   <i name="e_wo_entrp">   -191.24968816 </i>
   <i name="e_0_energy">     -0.18687307 </i>
  </energy>
  <time name="totalsc">  381.74  382.75</time>
 </calculation>
 <calculation>
  <scstep>
   <time name="dav">   21.70   21.75</time>
   <time name="total">   22.20   22.26</time>
   <energy>
    <i name="alphaZ">     90.35968677 </i>
    <i name="ewald">  44723.27691274 </i>
    <i name="hartreedc"> -50734.66932674 </i>
    <i name="XCdc">   -233.39735684 </i>
    <i name="pawpsdc">   4084.78668404 </i>
    <i name="pawaedc">  -3500.72392232 </i>
    <i name="eentropy">     -0.18971704 </i>
    <i name="bandstr">  -1382.28066364 </i>
    <i name="atom">   6761.44252427 </i>
    <i name="e_fr_energy">   -191.39517877 </i>
    <i name="e_wo_entrp">   -191.20546174 </i>
    <i name="e_0_energy">   -191.30032025 </i>
   </energy>
  </scstep>
  <scstep>
   <time name="dav">   30.63   30.70</time>
   <time name="total">   31.13   31.22</time>
   <energy>
    <i name="e_fr_energy">   -191.45617847 </i>
    <i name="e_wo_entrp">   -191.25392399 </i>
    <i name="e_0_energy">   -191.35505123 </i>
   </energy>
  </scstep>
  <scstep>
   <time name="dav">   29.38   29.45</time>
   <time name="total">   29.88   29.96</time>
   <energy>
    <i name="e_fr_energy">   -191.40637305 </i>
    <i name="e_wo_entrp">   -191.21621665 </i>
    <i name="e_0_energy">   -191.31129485 </i>
   </energy>
  </scstep>
  <scstep>
   <time name="dav">   28.47   28.54</time>
   <time name="total">   28.97   29.05</time>
   <energy>
    <i name="e_fr_energy">   -191.40660194 </i>
    <i name="e_wo_entrp">   -191.21493082 </i>
    <i name="e_0_energy">   -191.31076638 </i>
   </energy>
  </scstep>
  <scstep>
   <time name="dav">   28.48   28.55</time>
   <time name="total">   28.99   29.06</time>
   <energy>
    <i name="e_fr_energy">   -191.40285089 </i>
    <i name="e_wo_entrp">   -191.21133192 </i>
    <i name="e_0_energy">   -191.30709140 </i>
   </energy>
  </scstep>
  <scstep>
   <time name="dav">   28.48   28.55</time>
   <time name="total">   28.98   29.06</time>
   <energy>
    <i name="e_fr_energy">   -191.40286988 </i>
    <i name="e_wo_entrp">   -191.21104862 </i>
    <i name="e_0_energy">   -191.30695925 </i>
   </energy>
  </scstep>
  <scstep>
   <time name="dav">   28.97   29.04</time>
   <time name="total">   29.47   29.55</time>
   <energy>
    <i name="e_fr_energy">   -191.40289486 </i>
    <i name="e_wo_entrp">   -191.21128302 </i>
    <i name="e_0_energy">   -191.30708894 </i>
   </energy>
  </scstep>
  <scstep>
   <time name="dav">   25.54   25.60</time>
   <time name="total">   26.04   26.11</time>
   <energy>
    <i name="e_fr_energy">   -191.40233673 </i>
    <i name="e_wo_entrp">   -191.21067160 </i>
    <i name="e_0_energy">   -191.30650416 </i>
   </energy>
  </scstep>
  <scstep>
   <time name="dav">   17.58   17.62</time>
   <time name="total">   17.62   17.66</time>
   <energy>
    <i name="alphaZ">     90.35968677 </i>
    <i name="ewald">  44723.27691274 </i>
    <i name="hartreedc"> -50735.17286092 </i>
    <i name="XCdc">   -233.39460806 </i>
    <i name="pawpsdc">   4082.20264784 </i>
    <i name="pawaedc">  -3498.09728282 </i>
    <i name="eentropy">     -0.19166075 </i>
    <i name="bandstr">  -1381.82770935 </i>
    <i name="atom">   6761.44252427 </i>
    <i name="e_fr_energy">   -191.40235026 </i>
    <i name="e_wo_entrp">   -191.21068952 </i>
    <i name="e_0_energy">   -191.30651989 </i>
   </energy>
  </scstep>
  <structure>
   <crystal>
    <varray name="basis" >
     <v>       8.27029394       4.78882443       0.00000000 </v>
     <v>      -8.25800781       4.76756345       0.00000000 </v>
     <v>       0.00000000       0.00000000      30.00000000 </v>
    </varray>
    <i name="volume">   2369.25902009 </i>
    <varray name="rec_basis" >
     <v>       0.06036778       0.10456444       0.00000000 </v>
     <v>      -0.06063699       0.10472001       0.00000000 </v>
     <v>       0.00000000       0.00000000       0.03333333 </v>
    </varray>
   </crystal>
   <varray name="positions" >
    <v>       0.34333709       0.33246577       0.00001952 </v>
    <v>      -0.01070549       0.66549397       0.00001882 </v>
    <v>       0.99526040       0.33239392       0.00007614 </v>
    <v>       0.34870504       0.00583303       0.00001369 </v>
    <v>       0.65697717       0.32910450      -0.00002544 </v>
    <v>       0.66903482       0.66521393      -0.00012151 </v>
    <v>      -0.00275077      -0.00886956      -0.00037384 </v>
    <v>       0.34688977       0.68137750       0.00034863 </v>
    <v>       0.65126821      -0.00455054       0.00013396 </v>
    <v>       0.11417051       0.22680023       0.95117113 </v>
    <v>       0.22461828       0.11628577       0.05070762 </v>
    <v>       0.10739252       0.55444754       0.95133375 </v>
    <v>       0.22134297       0.44086473       0.04820844 </v>
    <v>       0.10919677       0.88280640       0.94901948 </v>
    <v>       0.21690879       0.77485452       0.05062782 </v>
    <v>       0.44091146       0.22548657       0.94670924 </v>
    <v>       0.55723552       0.11212409       0.05459943 </v>
    <v>       0.44030346       0.54954750       0.94869660 </v>
    <v>       0.54864148       0.44098481       0.05257016 </v>
    <v>       0.44437851       0.88905808       0.94479292 </v>
    <v>       0.55716984       0.77890668       0.05386692 </v>
    <v>       0.78186622       0.22383523       0.94878283 </v>
    <v>       0.88977714       0.11446151       0.05019963 </v>
    <v>       0.78364764       0.55736081       0.94808863 </v>
    <v>       0.89332870       0.44745534       0.04998922 </v>
    <v>       0.77716707       0.89028050       0.94782969 </v>
    <v>       0.89214135       0.77419163       0.05271641 </v>
   </varray>
  </structure>
  <varray name="forces" >
   <v>       0.18728988       0.07196627       0.00297012 </v>
   <v>      -0.24326840      -0.35102116      -0.02065774 </v>
   <v>      -0.06948383      -0.05699941      -0.02278156 </v>
   <v>       0.23549118       0.27549455      -0.01631694 </v>
   <v>      -0.00826060      -0.08699045       0.01364603 </v>
   <v>       0.07480761       0.09616726       0.01788816 </v>
   <v>       0.03025216      -0.22301062      -0.03134325 </v>
   <v>      -0.02147383       0.36247486      -0.01126144 </v>
   <v>      -0.20324323      -0.18335736       0.02449955 </v>
   <v>       0.05990998      -0.02471652       0.11083645 </v>
   <v>       0.10553940      -0.04931366      -0.11931540 </v>
   <v>      -0.01328843       0.08618331       0.14523042 </v>
   <v>      -0.01090093       0.12666169      -0.16136138 </v>
   <v>       0.07430673       0.05814734       0.12751487 </v>
   <v>      -0.01520818       0.07845419      -0.13874899 </v>
   <v>       0.05466731       0.00171253      -0.10158274 </v>
   <v>      -0.01806189       0.06680154       0.15888767 </v>
   <v>      -0.00933452       0.05941778       0.02797412 </v>
   <v>       0.00618680       0.02676672       0.04237209 </v>
   <v>      -0.02334186       0.05139206      -0.20716657 </v>
   <v>       0.04488105       0.06632508       0.09710519 </v>
   <v>      -0.03963764      -0.10175636       0.00937601 </v>
   <v>      -0.00498496      -0.11302800      -0.05648328 </v>
   <v>      -0.02614766      -0.10344447      -0.08391886 </v>
   <v>      -0.07642429      -0.05500423       0.02565711 </v>
   <v>      -0.08070237      -0.02212787       0.04051229 </v>
   <v>      -0.00956946      -0.05719506       0.12646809 </v>
  </varray>
  <varray name="stress" >
   <v>      -0.01870185       0.04117541       0.02747150 </v>
   <v>       0.04117550      -0.02719202       0.09135635 </v>
   <v>       0.02747156       0.09135644      -1.29199648 </v>
  </varray>
  <energy>
   <i name="e_fr_energy">   -191.40235026 </i>
   <i name="e_wo_entrp">   -191.30651989 </i>
   <i name="e_0_energy">     -0.19166075 </i>
  </energy>
  <time name="totalsc">  285.09  285.83</time>
 </calculation>
 <calculation>
  <scstep>
   <time name="dav">   21.71   21.76</time>
   <time name="total">   22.22   22.27</time>
   <energy>
    <i name="alphaZ">     90.38940687 </i>
    <i name="ewald">  44739.27631033 </i>
    <i name="hartreedc"> -50751.31794067 </i>
    <i name="XCdc">   -233.36759776 </i>
    <i name="pawpsdc">   4082.16583895 </i>
    <i name="pawaedc">  -3498.05964610 </i>
    <i name="eentropy">     -0.19189774 </i>
    <i name="bandstr">  -1381.80135717 </i>
    <i name="atom">   6761.44252427 </i>
    <i name="e_fr_energy">   -191.46435900 </i>
    <i name="e_wo_entrp">   -191.27246127 </i>
    <i name="e_0_energy">   -191.36841014 </i>
   </energy>
  </scstep>
  <scstep>
   <time name="dav">   31.90   31.98</time>
   <time name="total">   32.41   32.49</time>
   <energy>
    <i name="e_fr_energy">   -191.56115318 </i>
    <i name="e_wo_entrp">   -191.34434901 </i>
    <i name="e_0_energy">   -191.45275110 </i>
   </energy>
  </scstep>
  <scstep>
   <time name="dav">   29.69   29.76</time>
   <time name="total">   30.19   30.27</time>
   <energy>
    <i name="e_fr_energy">   -191.47739214 </i>
    <i name="e_wo_entrp">   -191.28430776 </i>
    <i name="e_0_energy">   -191.38084995 </i>
   </energy>
  </scstep>
  <scstep>
   <time name="dav">   28.82   28.89</time>
   <time name="total">   29.32   29.40</time>
   <energy>
    <i name="e_fr_energy">   -191.47690333 </i>
    <i name="e_wo_entrp">   -191.28199935 </i>
    <i name="e_0_energy">   -191.37945134 </i>
   </energy>
  </scstep>
  <scstep>
   <time name="dav">   28.88   28.95</time>
   <time name="total">   29.39   29.47</time>
   <energy>
    <i name="e_fr_energy">   -191.47113662 </i>
    <i name="e_wo_entrp">   -191.27600268 </i>
    <i name="e_0_energy">   -191.37356965 </i>
   </energy>
  </scstep>
  <scstep>
   <time name="dav">   28.43   28.49</time>
   <time name="total">   28.93   29.01</time>
   <energy>
    <i name="e_fr_energy">   -191.47125645 </i>
    <i name="e_wo_entrp">   -191.27552838 </i>
    <i name="e_0_energy">   -191.37339242 </i>
   </energy>
  </scstep>
  <scstep>
   <time name="dav">   28.10   28.17</time>
   <time name="total">   28.61   28.68</time>
   <energy>
    <i name="e_fr_energy">   -191.47069264 </i>
    <i name="e_wo_entrp">   -191.27519734 </i>
    <i name="e_0_energy">   -191.37294499 </i>
   </energy>
  </scstep>
  <scstep>
   <time name="dav">   25.29   25.35</time>
   <time name="total">   25.79   25.86</time>
   <energy>
    <i name="e_fr_energy">   -191.47010510 </i>
    <i name="e_wo_entrp">   -191.27449613 </i>
    <i name="e_0_energy">   -191.37230061 </i>
   </energy>
  </scstep>
  <scstep>
[...]
      <set comment="kpoint 31">
       <r>  -17.5389    1.0000 </r>
       <r>  -17.2313    1.0000 </r>
       <r>  -16.9187    1.0000 </r>
       <r>  -16.6527    1.0000 </r>
       <r>  -16.5193    1.0000 </r>
       <r>  -16.4075    1.0000 </r>
       <r>  -16.2783    1.0000 </r>
       <r>  -16.2263    1.0000 </r>
       <r>  -16.0770    1.0000 </r>
       <r>  -15.9989    1.0000 </r>
       <r>  -15.9182    1.0000 </r>
       <r>  -15.8261    1.0000 </r>
       <r>  -15.7458    1.0000 </r>
       <r>  -15.7004    1.0000 </r>
       <r>  -15.5998    1.0000 </r>
       <r>  -15.5145    1.0000 </r>
       <r>  -15.4617    1.0000 </r>
       <r>  -15.3284    1.0000 </r>
       <r>   -9.7367    1.0000 </r>
       <r>   -9.4613    1.0000 </r>
       <r>   -9.3138    1.0000 </r>
       <r>   -9.0117    1.0000 </r>
       <r>   -8.7937    1.0000 </r>
       <r>   -8.7528    1.0000 </r>
       <r>   -8.5479    1.0000 </r>
       <r>   -8.4217    1.0000 </r>
       <r>   -8.4124    1.0000 </r>
       <r>   -8.2962    1.0000 </r>
       <r>   -8.2560    1.0000 </r>
       <r>   -8.2253    1.0000 </r>
       <r>   -8.1565    1.0000 </r>
       <r>   -8.1192    1.0000 </r>
       <r>   -8.0360    1.0000 </r>
       <r>   -7.8646    1.0000 </r>
       <r>   -7.8238    1.0000 </r>
       <r>   -7.6445    1.0000 </r>
       <r>   -7.5191    1.0000 </r>
       <r>   -7.4482    1.0000 </r>
       <r>   -7.3380    1.0000 </r>
       <r>   -7.2019    1.0000 </r>
       <r>   -7.1376    1.0000 </r>
       <r>   -7.0758    1.0000 </r>
       <r>   -7.0335    1.0000 </r>
       <r>   -6.8996    1.0000 </r>
       <r>   -6.8518    1.0000 </r>
       <r>   -6.7706    1.0000 </r>
       <r>   -6.7022    1.0000 </r>
       <r>   -6.6215    1.0000 </r>
       <r>   -6.5691    1.0000 </r>
       <r>   -6.5101    1.0000 </r>
       <r>   -6.4505    1.0000 </r>
       <r>   -6.3733    1.0000 </r>
       <r>   -6.3196    1.0000 </r>
       <r>   -6.2108    1.0000 </r>
       <r>   -6.1173    1.0000 </r>
       <r>   -6.0057    1.0000 </r>
       <r>   -5.9679    1.0000 </r>
       <r>   -5.8749    1.0000 </r>
       <r>   -5.8142    1.0000 </r>
       <r>   -5.7757    1.0000 </r>
       <r>   -5.6726    1.0000 </r>
       <r>   -5.6578    1.0000 </r>
       <r>   -5.5029    1.0000 </r>
       <r>   -5.3871    1.0000 </r>
       <r>   -5.2547    1.0000 </r>
       <r>   -5.1194    1.0000 </r>
       <r>   -5.0711    1.0000 </r>
       <r>   -4.8665    1.0000 </r>
       <r>   -4.7929    1.0000 </r>
       <r>   -4.6788    1.0000 </r>
       <r>   -4.6109    1.0000 </r>
       <r>   -4.4595    1.0000 </r>
       <r>   -4.3721    1.0000 </r>
       <r>   -4.2848    1.0000 </r>
       <r>   -4.0664    1.0000 </r>
       <r>   -3.9706    1.0000 </r>
       <r>   -3.8453    0.9998 </r>
       <r>   -3.8204    0.9995 </r>
       <r>   -3.6364    0.9781 </r>
       <r>   -3.3098    0.3843 </r>
       <r>   -3.0082    0.0076 </r>
       <r>   -2.7589    0.0000 </r>
       <r>   -2.6665    0.0000 </r>
       <r>   -2.6159    0.0000 </r>
       <r>   -2.4660    0.0000 </r>
       <r>   -2.4149    0.0000 </r>
       <r>   -2.2886    0.0000 </r>
       <r>   -2.1813    0.0000 </r>
       <r>   -2.1064    0.0000 </r>
       <r>   -1.9353    0.0000 </r>
       <r>   -1.8295    0.0000 </r>
       <r>   -1.5886    0.0000 </r>
       <r>   -1.3612    0.0000 </r>
       <r>   -1.2774    0.0000 </r>
       <r>   -1.2144    0.0000 </r>
       <r>   -1.1808    0.0000 </r>
       <r>   -1.0964    0.0000 </r>
       <r>   -1.0268    0.0000 </r>
       <r>   -1.0025    0.0000 </r>
       <r>   -0.9062    0.0000 </r>
       <r>   -0.8240    0.0000 </r>
       <r>   -0.7498    0.0000 </r>
       <r>   -0.6159    0.0000 </r>
       <r>   -0.5552    0.0000 </r>
       <r>   -0.5291    0.0000 </r>
       <r>   -0.3377    0.0000 </r>
       <r>   -0.2174    0.0000 </r>
       <r>   -0.1628    0.0000 </r>
       <r>   -0.0717    0.0000 </r>
       <r>    0.0875    0.0000 </r>
       <r>    0.3557    0.0000 </r>
       <r>    0.5561    0.0000 </r>
       <r>    0.7041    0.0000 </r>
       <r>    0.9802    0.0000 </r>
       <r>    1.1025    0.0000 </r>
       <r>    1.2524    0.0000 </r>
       <r>    1.4924    0.0000 </r>
       <r>    2.1263    0.0000 </r>
       <r>    2.2835    0.0000 </r>
       <r>    2.3783    0.0000 </r>
      </set>
      <set comment="kpoint 32">
       <r>  -17.5489    1.0000 </r>
       <r>  -17.1128    1.0000 </r>
       <r>  -17.0804    1.0000 </r>
       <r>  -16.6530    1.0000 </r>
       <r>  -16.4323    1.0000 </r>
       <r>  -16.3742    1.0000 </r>
       <r>  -16.3047    1.0000 </r>
       <r>  -16.1983    1.0000 </r>
       <r>  -16.1399    1.0000 </r>
       <r>  -16.0409    1.0000 </r>
       <r>  -15.9216    1.0000 </r>
       <r>  -15.8006    1.0000 </r>
       <r>  -15.7366    1.0000 </r>
       <r>  -15.7062    1.0000 </r>
       <r>  -15.5812    1.0000 </r>
       <r>  -15.5234    1.0000 </r>
       <r>  -15.4554    1.0000 </r>
       <r>  -15.3319    1.0000 </r>
       <r>   -9.6612    1.0000 </r>
       <r>   -9.5684    1.0000 </r>
       <r>   -9.3765    1.0000 </r>
       <r>   -9.0212    1.0000 </r>
       <r>   -8.7077    1.0000 </r>
       <r>   -8.6577    1.0000 </r>
       <r>   -8.5411    1.0000 </r>
       <r>   -8.4306    1.0000 </r>
       <r>   -8.3853    1.0000 </r>
       <r>   -8.2961    1.0000 </r>
       <r>   -8.2738    1.0000 </r>
       <r>   -8.2408    1.0000 </r>
       <r>   -8.1506    1.0000 </r>
       <r>   -8.1122    1.0000 </r>
       <r>   -8.0484    1.0000 </r>
       <r>   -7.9695    1.0000 </r>
       <r>   -7.7987    1.0000 </r>
       <r>   -7.6657    1.0000 </r>
       <r>   -7.5091    1.0000 </r>
       <r>   -7.4180    1.0000 </r>
       <r>   -7.3587    1.0000 </r>
       <r>   -7.2787    1.0000 </r>
       <r>   -7.2059    1.0000 </r>
       <r>   -7.0915    1.0000 </r>
       <r>   -6.9905    1.0000 </r>
       <r>   -6.8683    1.0000 </r>
       <r>   -6.8243    1.0000 </r>
       <r>   -6.7434    1.0000 </r>
       <r>   -6.7019    1.0000 </r>
       <r>   -6.6100    1.0000 </r>
       <r>   -6.5320    1.0000 </r>
       <r>   -6.4982    1.0000 </r>
       <r>   -6.4350    1.0000 </r>
       <r>   -6.3727    1.0000 </r>
       <r>   -6.3385    1.0000 </r>
       <r>   -6.1711    1.0000 </r>
       <r>   -6.1175    1.0000 </r>
       <r>   -6.0288    1.0000 </r>
       <r>   -5.9311    1.0000 </r>
       <r>   -5.8575    1.0000 </r>
       <r>   -5.8278    1.0000 </r>
       <r>   -5.7701    1.0000 </r>
       <r>   -5.6575    1.0000 </r>
       <r>   -5.6163    1.0000 </r>
       <r>   -5.5150    1.0000 </r>
       <r>   -5.4185    1.0000 </r>
       <r>   -5.2895    1.0000 </r>
       <r>   -5.0756    1.0000 </r>
       <r>   -5.0309    1.0000 </r>
       <r>   -4.9519    1.0000 </r>
       <r>   -4.8784    1.0000 </r>
       <r>   -4.7113    1.0000 </r>
       <r>   -4.6605    1.0000 </r>
       <r>   -4.4360    1.0000 </r>
       <r>   -4.3362    1.0000 </r>
       <r>   -4.2704    1.0000 </r>
       <r>   -4.0792    1.0000 </r>
       <r>   -3.9749    1.0000 </r>
       <r>   -3.8320    0.9997 </r>
       <r>   -3.7986    0.9992 </r>
       <r>   -3.6297    0.9755 </r>
       <r>   -3.3031    0.3663 </r>
       <r>   -2.9794    0.0043 </r>
       <r>   -2.8085    0.0001 </r>
       <r>   -2.6832    0.0000 </r>
       <r>   -2.6187    0.0000 </r>
       <r>   -2.4800    0.0000 </r>
       <r>   -2.3881    0.0000 </r>
       <r>   -2.2832    0.0000 </r>
       <r>   -2.1859    0.0000 </r>
       <r>   -2.1034    0.0000 </r>
       <r>   -1.9417    0.0000 </r>
       <r>   -1.8236    0.0000 </r>
       <r>   -1.5925    0.0000 </r>
       <r>   -1.3639    0.0000 </r>
       <r>   -1.3031    0.0000 </r>
       <r>   -1.2365    0.0000 </r>
       <r>   -1.1961    0.0000 </r>
       <r>   -1.0571    0.0000 </r>
       <r>   -1.0054    0.0000 </r>
       <r>   -0.9432    0.0000 </r>
       <r>   -0.9198    0.0000 </r>
       <r>   -0.8047    0.0000 </r>
       <r>   -0.7161    0.0000 </r>
       <r>   -0.6146    0.0000 </r>
       <r>   -0.5767    0.0000 </r>
       <r>   -0.4937    0.0000 </r>
       <r>   -0.3968    0.0000 </r>
       <r>   -0.1816    0.0000 </r>
       <r>   -0.1624    0.0000 </r>
       <r>   -0.0479    0.0000 </r>
       <r>    0.1626    0.0000 </r>
       <r>    0.3422    0.0000 </r>
       <r>    0.5086    0.0000 </r>
       <r>    0.7113    0.0000 </r>
       <r>    0.9374    0.0000 </r>
       <r>    1.1182    0.0000 </r>
       <r>    1.2258    0.0000 </r>
       <r>    1.4359    0.0000 </r>
       <r>    2.0991    0.0000 </r>
       <r>    2.2485    0.0000 </r>
       <r>    2.5603    0.0000 </r>
      </set>
      <set comment="kpoint 33">
       <r>  -17.5390    1.0000 </r>
       <r>  -17.2202    1.0000 </r>
       <r>  -16.9319    1.0000 </r>
       <r>  -16.6537    1.0000 </r>
       <r>  -16.5144    1.0000 </r>
       <r>  -16.4066    1.0000 </r>
       <r>  -16.3107    1.0000 </r>
       <r>  -16.2048    1.0000 </r>
       <r>  -16.0671    1.0000 </r>
       <r>  -16.0527    1.0000 </r>
       <r>  -15.8922    1.0000 </r>
       <r>  -15.7915    1.0000 </r>
       <r>  -15.7408    1.0000 </r>
       <r>  -15.6942    1.0000 </r>
       <r>  -15.5862    1.0000 </r>
       <r>  -15.5406    1.0000 </r>
       <r>  -15.4601    1.0000 </r>
       <r>  -15.3347    1.0000 </r>
       <r>   -9.7328    1.0000 </r>
       <r>   -9.4597    1.0000 </r>
       <r>   -9.3318    1.0000 </r>
       <r>   -9.0371    1.0000 </r>
       <r>   -8.7947    1.0000 </r>
       <r>   -8.7545    1.0000 </r>
       <r>   -8.6244    1.0000 </r>
       <r>   -8.4681    1.0000 </r>
       <r>   -8.3766    1.0000 </r>
       <r>   -8.2947    1.0000 </r>
       <r>   -8.2195    1.0000 </r>
       <r>   -8.1656    1.0000 </r>
       <r>   -8.1058    1.0000 </r>
       <r>   -8.0737    1.0000 </r>
       <r>   -7.9767    1.0000 </r>
       <r>   -7.9137    1.0000 </r>
       <r>   -7.7724    1.0000 </r>
       <r>   -7.7291    1.0000 </r>
       <r>   -7.5855    1.0000 </r>
       <r>   -7.4330    1.0000 </r>
       <r>   -7.3783    1.0000 </r>
       <r>   -7.2837    1.0000 </r>
       <r>   -7.2016    1.0000 </r>
       <r>   -7.0984    1.0000 </r>
       <r>   -6.9438    1.0000 </r>
       <r>   -6.9075    1.0000 </r>
       <r>   -6.7923    1.0000 </r>
       <r>   -6.7221    1.0000 </r>
       <r>   -6.6494    1.0000 </r>
       <r>   -6.6023    1.0000 </r>
       <r>   -6.5606    1.0000 </r>
       <r>   -6.4889    1.0000 </r>
       <r>   -6.4488    1.0000 </r>
       <r>   -6.3524    1.0000 </r>
       <r>   -6.2533    1.0000 </r>
       <r>   -6.1886    1.0000 </r>
       <r>   -6.1100    1.0000 </r>
       <r>   -6.0447    1.0000 </r>
       <r>   -5.9473    1.0000 </r>
       <r>   -5.8846    1.0000 </r>
       <r>   -5.8350    1.0000 </r>
       <r>   -5.7516    1.0000 </r>
       <r>   -5.7254    1.0000 </r>
       <r>   -5.6887    1.0000 </r>
       <r>   -5.5592    1.0000 </r>
       <r>   -5.3774    1.0000 </r>
       <r>   -5.3042    1.0000 </r>
       <r>   -5.1334    1.0000 </r>
       <r>   -5.0639    1.0000 </r>
       <r>   -4.9142    1.0000 </r>
       <r>   -4.8056    1.0000 </r>
       <r>   -4.6494    1.0000 </r>
       <r>   -4.6182    1.0000 </r>
       <r>   -4.4303    1.0000 </r>
       <r>   -4.3693    1.0000 </r>
       <r>   -4.2771    1.0000 </r>
       <r>   -4.0914    1.0000 </r>
       <r>   -3.9788    1.0000 </r>
       <r>   -3.8475    0.9998 </r>
       <r>   -3.8014    0.9993 </r>
       <r>   -3.6290    0.9752 </r>
       <r>   -3.3001    0.3586 </r>
       <r>   -2.9599    0.0028 </r>
       <r>   -2.8415    0.0002 </r>
       <r>   -2.7024    0.0000 </r>
       <r>   -2.6451    0.0000 </r>
       <r>   -2.5108    0.0000 </r>
       <r>   -2.3822    0.0000 </r>
       <r>   -2.2540    0.0000 </r>
       <r>   -2.1894    0.0000 </r>
       <r>   -2.0745    0.0000 </r>
       <r>   -1.9111    0.0000 </r>
       <r>   -1.7915    0.0000 </r>
       <r>   -1.6075    0.0000 </r>
       <r>   -1.3761    0.0000 </r>
       <r>   -1.3143    0.0000 </r>
       <r>   -1.2552    0.0000 </r>
       <r>   -1.2104    0.0000 </r>
       <r>   -1.0404    0.0000 </r>
       <r>   -1.0196    0.0000 </r>
       <r>   -0.9230    0.0000 </r>
       <r>   -0.8623    0.0000 </r>
       <r>   -0.7906    0.0000 </r>
       <r>   -0.6890    0.0000 </r>
       <r>   -0.6047    0.0000 </r>
       <r>   -0.5876    0.0000 </r>
       <r>   -0.4850    0.0000 </r>
       <r>   -0.4441    0.0000 </r>
       <r>   -0.2776    0.0000 </r>
       <r>   -0.1480    0.0000 </r>
       <r>    0.0283    0.0000 </r>
       <r>    0.2356    0.0000 </r>
       <r>    0.3215    0.0000 </r>
       <r>    0.5108    0.0000 </r>
       <r>    0.7092    0.0000 </r>
       <r>    0.9020    0.0000 </r>
       <r>    1.1612    0.0000 </r>
       <r>    1.2152    0.0000 </r>
       <r>    1.3797    0.0000 </r>
       <r>    2.1312    0.0000 </r>
       <r>    2.2787    0.0000 </r>
       <r>    2.3787    0.0000 </r>
      </set>
      <set comment="kpoint 34">
       <r>  -17.5273    1.0000 </r>
       <r>  -17.2724    1.0000 </r>
       <r>  -16.7832    1.0000 </r>
       <r>  -16.6764    1.0000 </r>
       <r>  -16.6414    1.0000 </r>
       <r>  -16.4123    1.0000 </r>
       <r>  -16.2934    1.0000 </r>
       <r>  -16.2202    1.0000 </r>
       <r>  -16.0747    1.0000 </r>
       <r>  -16.0063    1.0000 </r>
       <r>  -15.8610    1.0000 </r>
       <r>  -15.7938    1.0000 </r>
       <r>  -15.7412    1.0000 </r>
       <r>  -15.6736    1.0000 </r>
       <r>  -15.6253    1.0000 </r>
       <r>  -15.5364    1.0000 </r>
       <r>  -15.4666    1.0000 </r>
       <r>  -15.3355    1.0000 </r>
       <r>   -9.7709    1.0000 </r>
       <r>   -9.3723    1.0000 </r>
       <r>   -9.2607    1.0000 </r>
       <r>   -9.0719    1.0000 </r>
       <r>   -8.9103    1.0000 </r>
       <r>   -8.8129    1.0000 </r>
       <r>   -8.6348    1.0000 </r>
       <r>   -8.5061    1.0000 </r>
       <r>   -8.3911    1.0000 </r>
       <r>   -8.3006    1.0000 </r>
       <r>   -8.1758    1.0000 </r>
       <r>   -8.1413    1.0000 </r>
       <r>   -8.0950    1.0000 </r>
       <r>   -8.0299    1.0000 </r>
       <r>   -7.9066    1.0000 </r>
       <r>   -7.8569    1.0000 </r>
       <r>   -7.7828    1.0000 </r>
       <r>   -7.6859    1.0000 </r>
       <r>   -7.6703    1.0000 </r>
       <r>   -7.4810    1.0000 </r>
       <r>   -7.4110    1.0000 </r>
       <r>   -7.2805    1.0000 </r>
       <r>   -7.1557    1.0000 </r>
       <r>   -7.0769    1.0000 </r>
       <r>   -6.9501    1.0000 </r>
       <r>   -6.9039    1.0000 </r>
       <r>   -6.7789    1.0000 </r>
       <r>   -6.7104    1.0000 </r>
       <r>   -6.6166    1.0000 </r>
       <r>   -6.5985    1.0000 </r>
       <r>   -6.5748    1.0000 </r>
       <r>   -6.5224    1.0000 </r>
       <r>   -6.4574    1.0000 </r>
       <r>   -6.3208    1.0000 </r>
       <r>   -6.2535    1.0000 </r>
       <r>   -6.2111    1.0000 </r>
       <r>   -6.1048    1.0000 </r>
       <r>   -6.0445    1.0000 </r>
       <r>   -5.9048    1.0000 </r>
       <r>   -5.8961    1.0000 </r>
       <r>   -5.8699    1.0000 </r>
       <r>   -5.8103    1.0000 </r>
       <r>   -5.7578    1.0000 </r>
       <r>   -5.6551    1.0000 </r>
       <r>   -5.5651    1.0000 </r>
       <r>   -5.4318    1.0000 </r>
       <r>   -5.3507    1.0000 </r>
       <r>   -5.0843    1.0000 </r>
       <r>   -5.0599    1.0000 </r>
       <r>   -4.9295    1.0000 </r>
       <r>   -4.7886    1.0000 </r>
       <r>   -4.5616    1.0000 </r>
       <r>   -4.4902    1.0000 </r>
       <r>   -4.4862    1.0000 </r>
       <r>   -4.3852    1.0000 </r>
       <r>   -4.3280    1.0000 </r>
       <r>   -4.1004    1.0000 </r>
       <r>   -3.9747    1.0000 </r>
       <r>   -3.8589    0.9998 </r>
       <r>   -3.8143    0.9995 </r>
       <r>   -3.6291    0.9752 </r>
       <r>   -3.3007    0.3601 </r>
       <r>   -2.9592    0.0028 </r>
       <r>   -2.8447    0.0002 </r>
       <r>   -2.7122    0.0000 </r>
       <r>   -2.6639    0.0000 </r>
       <r>   -2.5254    0.0000 </r>
       <r>   -2.3843    0.0000 </r>
       <r>   -2.2418    0.0000 </r>
       <r>   -2.1765    0.0000 </r>
       <r>   -2.0606    0.0000 </r>
       <r>   -1.8919    0.0000 </r>
       <r>   -1.7727    0.0000 </r>
       <r>   -1.6178    0.0000 </r>
       <r>   -1.3780    0.0000 </r>
       <r>   -1.3174    0.0000 </r>
       <r>   -1.2586    0.0000 </r>
       <r>   -1.2229    0.0000 </r>
       <r>   -1.0538    0.0000 </r>
       <r>   -1.0159    0.0000 </r>
       <r>   -0.9319    0.0000 </r>
       <r>   -0.8331    0.0000 </r>
       <r>   -0.7215    0.0000 </r>
       <r>   -0.6900    0.0000 </r>
       <r>   -0.6433    0.0000 </r>
       <r>   -0.5749    0.0000 </r>
       <r>   -0.5255    0.0000 </r>
       <r>   -0.4365    0.0000 </r>
       <r>   -0.3164    0.0000 </r>
       <r>   -0.1581    0.0000 </r>
       <r>    0.0699    0.0000 </r>
       <r>    0.2410    0.0000 </r>
       <r>    0.3213    0.0000 </r>
       <r>    0.5369    0.0000 </r>
       <r>    0.7015    0.0000 </r>
       <r>    0.8916    0.0000 </r>
       <r>    1.1773    0.0000 </r>
       <r>    1.2282    0.0000 </r>
       <r>    1.3510    0.0000 </r>
       <r>    2.2110    0.0000 </r>
       <r>    2.2375    0.0000 </r>
       <r>    2.3620    0.0000 </r>
      </set>
     </set>
    </set>
   </array>
  </eigenvalues>
  <separator name="orbital magnetization" >
   <v name="MAGDIPOLOUT">      0.00000000      0.00000000      0.00000000</v>
  </separator>
 </calculation>
 <structure name="finalpos" >
  <crystal>
   <varray name="basis" >
    <v>       8.37084744       4.86184565       0.00000000 </v>
    <v>      -8.34154896       4.81106724       0.00000000 </v>
    <v>       0.00000000       0.00000000      30.00000000 </v>
   </varray>
   <i name="volume">   2424.84100249 </i>
   <varray name="rec_basis" >
    <v>       0.05952226       0.10320119       0.00000000 </v>
    <v>      -0.06015049       0.10356367       0.00000000 </v>
    <v>       0.00000000       0.00000000       0.03333333 </v>
   </varray>
  </crystal>
  <varray name="positions" >
   <v>       0.35787287       0.34052851      -0.00030113 </v>
   <v>      -0.04177855       0.65015073       0.00215982 </v>
   <v>       1.04181612       0.35893103      -0.00418464 </v>
   <v>       0.37260510       0.01861617      -0.00278043 </v>
   <v>       0.64411752       0.33730235       0.00093495 </v>
   <v>       0.66569657       0.66922324       0.00051228 </v>
   <v>      -0.04271108      -0.02886644       0.00200439 </v>
   <v>       0.36094019       0.68478510      -0.00033582 </v>
   <v>       0.64722361      -0.02432162       0.00048989 </v>
   <v>       0.11388577       0.21487156       0.95314633 </v>
   <v>       0.21751019       0.10661334       0.04325231 </v>
   <v>       0.11275775       0.56885744       0.95193877 </v>
   <v>       0.23247930       0.44692974       0.04925706 </v>
   <v>       0.10769202       0.88396707       0.95639847 </v>
   <v>       0.21497024       0.77666446       0.04370024 </v>
   <v>       0.44370137       0.22728556       0.94427429 </v>
   <v>       0.56454458       0.11488029       0.05387689 </v>
   <v>       0.43863749       0.54868990       0.94743489 </v>
   <v>       0.54720906       0.44171697       0.05513098 </v>
   <v>       0.44960676       0.89064410       0.94261760 </v>
   <v>       0.55670936       0.77741171       0.05702200 </v>
   <v>       0.78829195       0.22713582       0.95829676 </v>
   <v>       0.89097585       0.12000125       0.04894047 </v>
   <v>       0.77270133       0.55324135       0.94734474 </v>
   <v>       0.89357468       0.44296340       0.04788517 </v>
   <v>       0.76715317       0.88300303       0.94489944 </v>
   <v>       0.88003123       0.76698838       0.05608417 </v>
  </varray>
 </structure>
</modeling>
