<?xml version="1.0" encoding="ISO-8859-1"?>
<modeling>
 <generator>
  <i name="program" type="string">vasp </i>
  <i name="version" type="string">5.4.1  </i>
  <i name="subversion" type="string">05Feb16 (build Jul 05 2020 17:13:04) complex                          parallel </i>
  <i name="platform" type="string">IFC91_ompi </i>
  <i name="date" type="string">2024 08 11 </i>
  <i name="time" type="string">12:09:05 </i>
 </generator>
 <incar>
  <i type="int" name="ISTART">     0</i>
  <i type="string" name="PREC">normal</i>
  <i type="string" name="ALGO"> Normal</i>
  <i type="int" name="ISPIN">     1</i>
  <i type="int" name="ICHARG">     2</i>
  <i type="int" name="IBRION">     1</i>
  <i type="int" name="NSW">   100</i>
  <i type="int" name="ISIF">     3</i>
  <i type="int" name="ISYM">     0</i>
  <i name="SYMPREC">      0.00000001</i>
  <i name="POTIM">      0.50000000</i>
  <i type="logical" name="LREAL"> F  </i>
  <i type="logical" name="LPLANE"> F  </i>
  <i type="int" name="ISMEAR">     0</i>
  <i type="logical" name="LWAVE"> F  </i>
  <i type="logical" name="LCHARG"> F  </i>
  <v type="int" name="KPOINT_BSE">    -1     0     0     0</v>
 </incar>
 <kpoints>
  <generation param="Gamma">
   <v type="int" name="divisions">       8        8        1 </v>
   <v name="usershift">      0.00000000       0.00000000       0.00000000 </v>
   <v name="genvec1">      0.12500000       0.00000000       0.00000000 </v>
   <v name="genvec2">     -0.00000000       0.12500000       0.00000000 </v>
   <v name="genvec3">      0.00000000       0.00000000       1.00000000 </v>
   <v name="shift">      0.00000000       0.00000000       0.00000000 </v>
  </generation>
  <varray name="kpointlist" >
   <v>       0.00000000       0.00000000       0.00000000 </v>
   <v>       0.12500000       0.00000000       0.00000000 </v>
   <v>       0.25000000       0.00000000       0.00000000 </v>
   <v>       0.37500000       0.00000000       0.00000000 </v>
   <v>       0.50000000       0.00000000       0.00000000 </v>
   <v>       0.00000000       0.12500000       0.00000000 </v>
   <v>       0.12500000       0.12500000       0.00000000 </v>
   <v>       0.25000000       0.12500000       0.00000000 </v>
   <v>       0.37500000       0.12500000       0.00000000 </v>
   <v>       0.50000000       0.12500000       0.00000000 </v>
   <v>      -0.37500000       0.12500000       0.00000000 </v>
   <v>      -0.25000000       0.12500000       0.00000000 </v>
   <v>      -0.12500000       0.12500000       0.00000000 </v>
   <v>       0.00000000       0.25000000       0.00000000 </v>
   <v>       0.12500000       0.25000000       0.00000000 </v>
   <v>       0.25000000       0.25000000       0.00000000 </v>
   <v>       0.37500000       0.25000000       0.00000000 </v>
   <v>       0.50000000       0.25000000       0.00000000 </v>
   <v>      -0.37500000       0.25000000       0.00000000 </v>
   <v>      -0.25000000       0.25000000       0.00000000 </v>
   <v>      -0.12500000       0.25000000       0.00000000 </v>
   <v>      -0.00000000       0.37500000       0.00000000 </v>
   <v>       0.12500000       0.37500000       0.00000000 </v>
   <v>       0.25000000       0.37500000       0.00000000 </v>
   <v>       0.37500000       0.37500000       0.00000000 </v>
   <v>       0.50000000       0.37500000       0.00000000 </v>
   <v>      -0.37500000       0.37500000       0.00000000 </v>
   <v>      -0.25000000       0.37500000       0.00000000 </v>
   <v>      -0.12500000       0.37500000       0.00000000 </v>
   <v>       0.00000000       0.50000000       0.00000000 </v>
   <v>       0.12500000       0.50000000       0.00000000 </v>
   <v>       0.25000000       0.50000000       0.00000000 </v>
   <v>       0.37500000       0.50000000       0.00000000 </v>
   <v>       0.50000000       0.50000000       0.00000000 </v>
  </varray>
  <varray name="weights" >
   <v>       0.01562500 </v>
   <v>       0.03125000 </v>
   <v>       0.03125000 </v>
   <v>       0.03125000 </v>
   <v>       0.01562500 </v>
   <v>       0.03125000 </v>
   <v>       0.03125000 </v>
   <v>       0.03125000 </v>
   <v>       0.03125000 </v>
   <v>       0.03125000 </v>
   <v>       0.03125000 </v>
   <v>       0.03125000 </v>
   <v>       0.03125000 </v>
   <v>       0.03125000 </v>
   <v>       0.03125000 </v>
   <v>       0.03125000 </v>
   <v>       0.03125000 </v>
   <v>       0.03125000 </v>
   <v>       0.03125000 </v>
   <v>       0.03125000 </v>
   <v>       0.03125000 </v>
   <v>       0.03125000 </v>
   <v>       0.03125000 </v>
   <v>       0.03125000 </v>
   <v>       0.03125000 </v>
   <v>       0.03125000 </v>
   <v>       0.03125000 </v>
   <v>       0.03125000 </v>
   <v>       0.03125000 </v>
   <v>       0.01562500 </v>
   <v>       0.03125000 </v>
   <v>       0.03125000 </v>
   <v>       0.03125000 </v>
   <v>       0.01562500 </v>
  </varray>
 </kpoints>
 <parameters>
  <separator name="general" >
   <i type="string" name="SYSTEM">unknown system</i>
   <i type="logical" name="LCOMPAT"> F  </i>
  </separator>
  <separator name="electronic" >
   <i type="string" name="PREC">normal</i>
   <i name="ENMAX">    280.00000000</i>
   <i name="ENAUG">    373.43800000</i>
   <i name="EDIFF">      0.00010000</i>
   <i type="int" name="IALGO">    38</i>
   <i type="int" name="IWAVPR">    11</i>
   <i type="int" name="NBANDS">   120</i>
   <i name="NELECT">    159.00000000</i>
   <i type="int" name="TURBO">     0</i>
   <i type="int" name="IRESTART">     0</i>
   <i type="int" name="NREBOOT">     0</i>
   <i type="int" name="NMIN">     0</i>
   <i name="EREF">      0.00000000</i>
   <separator name="electronic smearing" >
    <i type="int" name="ISMEAR">     0</i>
    <i name="SIGMA">      0.20000000</i>
    <i name="KSPACING">      0.50000000</i>
    <i type="logical" name="KGAMMA"> T  </i>
   </separator>
   <separator name="electronic projectors" >
    <i type="logical" name="LREAL"> F  </i>
    <v name="ROPT">      0.00000000      0.00000000      0.00000000      0.00000000</v>
    <i type="int" name="LMAXPAW">  -100</i>
    <i type="int" name="LMAXMIX">     2</i>
    <i type="logical" name="NLSPLINE"> F  </i>
   </separator>
   <separator name="electronic startup" >
    <i type="int" name="ISTART">     0</i>
    <i type="int" name="ICHARG">     2</i>
    <i type="int" name="INIWAV">     1</i>
   </separator>
   <separator name="electronic spin" >
    <i type="int" name="ISPIN">     1</i>
    <i type="logical" name="LNONCOLLINEAR"> F  </i>
    <v name="MAGMOM">      1.00000000      1.00000000      1.00000000      1.00000000      1.00000000      1.00000000      1.00000000      1.00000000      1.00000000      1.00000000      1.00000000      1.00000000      1.00000000      1.00000000      1.00000000      1.00000000      1.00000000      1.00000000      1.00000000      1.00000000
      1.00000000      1.00000000      1.00000000      1.00000000      1.00000000      1.00000000      1.00000000</v>
    <i name="NUPDOWN">     -1.00000000</i>
    <i type="logical" name="LSORBIT"> F  </i>
    <v name="SAXIS">      0.00000000      0.00000000      1.00000000</v>
    <i type="logical" name="LSPIRAL"> F  </i>
    <v name="QSPIRAL">      0.00000000      0.00000000      0.00000000</v>
    <i type="logical" name="LZEROZ"> F  </i>
   </separator>
   <separator name="electronic exchange-correlation" >
    <i type="logical" name="LASPH"> F  </i>
    <i type="logical" name="LMETAGGA"> F  </i>
   </separator>
   <separator name="electronic convergence" >
    <i type="int" name="NELM">    60</i>
    <i type="int" name="NELMDL">    -5</i>
    <i type="int" name="NELMIN">     2</i>
    <i name="ENINI">    280.00000000</i>
    <separator name="electronic convergence detail" >
     <i type="logical" name="LDIAG"> T  </i>
     <i type="logical" name="LSUBROT"> F  </i>
     <i name="WEIMIN">      0.00100000</i>
     <i name="EBREAK">      0.00000021</i>
     <i name="DEPER">      0.30000000</i>
     <i type="int" name="NRMM">     4</i>
     <i name="TIME">      0.40000000</i>
    </separator>
   </separator>
   <separator name="electronic mixer" >
    <i name="AMIX">      0.40000000</i>
    <i name="BMIX">      1.00000000</i>
    <i name="AMIN">      0.10000000</i>
    <i name="AMIX_MAG">      1.60000000</i>
    <i name="BMIX_MAG">      1.00000000</i>
    <separator name="electronic mixer details" >
     <i type="int" name="IMIX">     4</i>
     <i type="logical" name="MIXFIRST"> F  </i>
     <i type="int" name="MAXMIX">   -45</i>
     <i name="WC">    100.00000000</i>
     <i type="int" name="INIMIX">     1</i>
     <i type="int" name="MIXPRE">     1</i>
     <i type="int" name="MREMOVE">     5</i>
    </separator>
   </separator>
   <separator name="electronic dipolcorrection" >
    <i type="logical" name="LDIPOL"> F  </i>
    <i type="logical" name="LMONO"> F  </i>
    <i type="int" name="IDIPOL">     0</i>
    <i name="EPSILON">      1.00000000</i>
    <v name="DIPOL">   -100.00000000   -100.00000000   -100.00000000</v>
    <i name="EFIELD">      0.00000000</i>
   </separator>
  </separator>
  <separator name="grids" >
   <i type="int" name="NGX">    42</i>
   <i type="int" name="NGY">    42</i>
   <i type="int" name="NGZ">   126</i>
   <i type="int" name="NGXF">    84</i>
   <i type="int" name="NGYF">    84</i>
   <i type="int" name="NGZF">   252</i>
   <i type="logical" name="ADDGRID"> F  </i>
  </separator>
  <separator name="ionic" >
   <i type="int" name="NSW">   100</i>
   <i type="int" name="IBRION">     1</i>
   <i type="int" name="ISIF">     3</i>
   <i name="PSTRESS">      0.00000000</i>
   <i name="EDIFFG">      0.00100000</i>
   <i type="int" name="NFREE">     0</i>
   <i name="POTIM">      0.50000000</i>
   <i name="SMASS">     -3.00000000</i>
   <i name="SCALEE">      1.00000000</i>
  </separator>
  <separator name="ionic md" >
   <i name="TEBEG">      0.00010000</i>
   <i name="TEEND">      0.00010000</i>
   <i type="int" name="NBLOCK">     1</i>
   <i type="int" name="KBLOCK">   100</i>
   <i type="int" name="NPACO">   256</i>
   <i name="APACO">     16.00000000</i>
  </separator>
  <separator name="symmetry" >
   <i type="int" name="ISYM">     0</i>
   <i name="SYMPREC">      0.00000001</i>
  </separator>
  <separator name="dos" >
   <i type="logical" name="LORBIT"> F  </i>
   <v name="RWIGS">     -1.00000000     -1.00000000     -1.00000000     -1.00000000</v>
   <i type="int" name="NEDOS">   301</i>
   <i name="EMIN">     10.00000000</i>
   <i name="EMAX">    -10.00000000</i>
   <i name="EFERMI">      0.00000000</i>
  </separator>
  <separator name="writing" >
   <i type="int" name="NWRITE">     2</i>
   <i type="logical" name="LWAVE"> F  </i>
   <i type="logical" name="LCHARG"> F  </i>
   <i type="logical" name="LPARD"> F  </i>
   <i type="logical" name="LVTOT"> F  </i>
   <i type="logical" name="LVHAR"> F  </i>
   <i type="logical" name="LELF"> F  </i>
   <i type="logical" name="LOPTICS"> F  </i>
   <v name="STM">      0.00000000      0.00000000      0.00000000      0.00000000      0.00000000      0.00000000      0.00000000</v>
  </separator>
  <separator name="performance" >
   <i type="int" name="NPAR">    40</i>
   <i type="int" name="NSIM">     4</i>
   <i type="int" name="NBLK">    -1</i>
   <i type="logical" name="LPLANE"> F  </i>
   <i type="logical" name="LSCALAPACK"> T  </i>
   <i type="logical" name="LSCAAWARE"> F  </i>
   <i type="logical" name="LSCALU"> F  </i>
   <i type="logical" name="LASYNC"> F  </i>
   <i type="logical" name="LORBITALREAL"> F  </i>
  </separator>
  <separator name="miscellaneous" >
   <i type="int" name="IDIOT">     3</i>
   <i type="logical" name="LMUSIC"> F  </i>
   <v name="POMASS">     50.94100000     95.94000000    183.85000000     32.06600000</v>
   <v name="DARWINR">      0.00000000      0.00000000      0.00000000      0.00000000</v>
   <v name="DARWINV">      1.00000000      1.00000000      1.00000000      1.00000000</v>
   <i type="logical" name="LCORR"> T  </i>
  </separator>
  <i type="logical" name="GGA_COMPAT"> T  </i>
  <i type="logical" name="LBERRY"> F  </i>
  <i type="int" name="ICORELEVEL">     0</i>
  <i type="logical" name="LDAU"> F  </i>
  <i type="int" name="I_CONSTRAINED_M">     0</i>
  <separator name="electronic exchange-correlation" >
   <i type="string" name="GGA">--</i>
   <i type="int" name="VOSKOWN">     0</i>
   <i type="logical" name="LHFCALC"> F  </i>
   <i type="string" name="PRECFOCK"></i>
   <i type="logical" name="LSYMGRAD"> F  </i>
   <i type="logical" name="LHFONE"> F  </i>
   <i type="logical" name="LRHFCALC"> F  </i>
   <i type="logical" name="LTHOMAS"> F  </i>
   <i type="logical" name="LMODELHF"> F  </i>
   <i name="ENCUT4O">     -1.00000000</i>
   <i type="int" name="EXXOEP">     0</i>
   <i type="int" name="FOURORBIT">     0</i>
   <i name="AEXX">      0.00000000</i>
   <i name="HFALPHA">      0.00000000</i>
   <i name="MCALPHA">      0.00000000</i>
   <i name="ALDAX">      1.00000000</i>
   <i name="AGGAX">      1.00000000</i>
   <i name="ALDAC">      1.00000000</i>
   <i name="AGGAC">      1.00000000</i>
   <i type="int" name="NKREDX">     1</i>
   <i type="int" name="NKREDY">     1</i>
   <i type="int" name="NKREDZ">     1</i>
   <i type="logical" name="SHIFTRED"> F  </i>
   <i type="logical" name="ODDONLY"> F  </i>
   <i type="logical" name="EVENONLY"> F  </i>
   <i type="int" name="LMAXFOCK">     0</i>
   <i type="int" name="NMAXFOCKAE">     0</i>
   <i type="logical" name="LFOCKAEDFT"> F  </i>
   <i name="HFSCREEN">      0.00000000</i>
   <i name="HFSCREENC">      0.00000000</i>
   <i type="int" name="NBANDSGWLOW">     0</i>
  </separator>
  <separator name="vdW DFT" >
   <i type="logical" name="LUSE_VDW"> F  </i>
   <i name="Zab_VDW">     -0.84910000</i>
   <i name="PARAM1">      0.12340000</i>
   <i name="PARAM2">      1.00000000</i>
   <i name="PARAM3">      0.00000000</i>
  </separator>
  <separator name="model GW" >
   <i type="int" name="MODEL_GW">     0</i>
   <i name="MODEL_EPS0">     58.26239943</i>
   <i name="MODEL_ALPHA">      1.00000000</i>
  </separator>
  <separator name="linear response parameters" >
   <i type="logical" name="LEPSILON"> F  </i>
   <i type="logical" name="LRPA"> F  </i>
   <i type="logical" name="LNABLA"> F  </i>
   <i type="logical" name="LVEL"> F  </i>
   <i type="int" name="KINTER">     0</i>
   <i name="CSHIFT">      0.10000000</i>
   <i name="OMEGAMAX">     -1.00000000</i>
   <i name="DEG_THRESHOLD">      0.00200000</i>
  </separator>
  <separator name="orbital magnetization" >
   <i type="logical" name="NUCIND"> F  </i>
   <v name="MAGPOS">      0.00000000      0.00000000      0.00000000</v>
   <i type="logical" name="LNICSALL"> T  </i>
   <i type="logical" name="ORBITALMAG"> F  </i>
   <i type="logical" name="LMAGBLOCH"> F  </i>
   <i type="logical" name="LCHIMAG"> F  </i>
   <i type="logical" name="LGAUGE"> T  </i>
   <i type="int" name="MAGATOM">     0</i>
   <v name="MAGDIPOL">      0.00000000      0.00000000      0.00000000</v>
   <v name="AVECCONST">      0.00000000      0.00000000      0.00000000</v>
  </separator>
  <separator name="response functions" >
   <i type="logical" name="LADDER"> F  </i>
   <i type="logical" name="LFXC"> F  </i>
   <i type="logical" name="LHARTREE"> T  </i>
   <i type="int" name="IBSE">     0</i>
   <v type="int" name="KPOINT">    -1     0     0     0</v>
   <i type="logical" name="LTCTE"> F  </i>
   <i type="logical" name="LTETE"> F  </i>
   <i type="logical" name="LTRIPLET"> F  </i>
   <i type="logical" name="LFXCEPS"> F  </i>
   <i type="logical" name="LFXHEG"> F  </i>
   <i type="int" name="NATURALO">     0</i>
   <i type="logical" name="L2ORDER"> F  </i>
   <i type="logical" name="LUSEW"> F  </i>
   <i name="ENCUTGW">     -2.00000000</i>
   <i name="ENCUTGWSOFT">     -2.00000000</i>
   <i name="ENCUTLF">     -1.00000000</i>
   <i type="int" name="LMAXMP2">    -1</i>
   <i name="SCISSOR">      0.00000000</i>
   <i type="int" name="NOMEGA">     0</i>
   <i type="int" name="NOMEGAR">     0</i>
   <i type="int" name="NBANDSGW">    -1</i>
   <i type="int" name="NBANDSO">    -1</i>
   <i type="int" name="NBANDSV">    -1</i>
   <i type="int" name="NELM">     1</i>
   <i type="int" name="NELMHF">     1</i>
   <i type="int" name="DIM">     3</i>
   <i type="int" name="ANTIRES">     0</i>
   <i name="OMEGAMAX">    -30.00000000</i>
   <i name="OMEGAMIN">    -30.00000000</i>
   <i name="OMEGATL">   -200.00000000</i>
   <i type="int" name="OMEGAGRID">     0</i>
   <i name="CSHIFT">     -0.10000000</i>
   <i type="logical" name="SELFENERGY"> F  </i>
   <i type="logical" name="LSPECTRAL"> F  </i>
   <i type="logical" name="LSPECTRALGW"> F  </i>
   <i type="logical" name="LSINGLES"> F  </i>
   <i type="logical" name="LFERMIGW"> F  </i>
   <i type="logical" name="ODDONLYGW"> F  </i>
   <i type="logical" name="EVENONLYGW"> F  </i>
   <i type="int" name="NKREDLFX">     1</i>
   <i type="int" name="NKREDLFY">     1</i>
   <i type="int" name="NKREDLFZ">     1</i>
   <i type="int" name="MAXMEM">  1800</i>
   <i type="int" name="TELESCOPE">     0</i>
   <i type="int" name="TAUPAR">     1</i>
   <i type="int" name="OMEGAPAR">    -1</i>
   <i name="LAMBDA">      1.00000000</i>
  </separator>
  <separator name="External order field" >
   <i name="OFIELD_KAPPA">      0.00000000</i>
   <v name="OFIELD_K">      0.00000000      0.00000000      0.00000000</v>
   <i name="OFIELD_Q6_NEAR">      0.00000000</i>
   <i name="OFIELD_Q6_FAR">      0.00000000</i>
   <i name="OFIELD_A">      0.00000000</i>
  </separator>
 </parameters>
 <atominfo>
  <atoms>      27 </atoms>
  <types>       4 </types>
  <array name="atoms" >
   <dimension dim="1">ion</dimension>
   <field type="string">element</field>
   <field type="int">atomtype</field>
   <set>
    <rc><c>V </c><c>   1</c></rc>
    <rc><c>V </c><c>   1</c></rc>
    <rc><c>V </c><c>   1</c></rc>
    <rc><c>Mo</c><c>   2</c></rc>
    <rc><c>Mo</c><c>   2</c></rc>
    <rc><c>Mo</c><c>   2</c></rc>
    <rc><c>W </c><c>   3</c></rc>
    <rc><c>W </c><c>   3</c></rc>
    <rc><c>W </c><c>   3</c></rc>
    <rc><c>S </c><c>   4</c></rc>
    <rc><c>S </c><c>   4</c></rc>
    <rc><c>S </c><c>   4</c></rc>
    <rc><c>S </c><c>   4</c></rc>
    <rc><c>S </c><c>   4</c></rc>
    <rc><c>S </c><c>   4</c></rc>
    <rc><c>S </c><c>   4</c></rc>
    <rc><c>S </c><c>   4</c></rc>
    <rc><c>S </c><c>   4</c></rc>
    <rc><c>S </c><c>   4</c></rc>
    <rc><c>S </c><c>   4</c></rc>
    <rc><c>S </c><c>   4</c></rc>
    <rc><c>S </c><c>   4</c></rc>
    <rc><c>S </c><c>   4</c></rc>
    <rc><c>S </c><c>   4</c></rc>
    <rc><c>S </c><c>   4</c></rc>
    <rc><c>S </c><c>   4</c></rc>
    <rc><c>S </c><c>   4</c></rc>
   </set>
  </array>
  <array name="atomtypes" >
   <dimension dim="1">type</dimension>
   <field type="int">atomspertype</field>
   <field type="string">element</field>
   <field>mass</field>
   <field>valence</field>
   <field type="string">pseudopotential</field>
   <set>
    <rc><c>   3</c><c>V </c><c>     50.94100000</c><c>      5.00000000</c><c> PAW_PBE V 08Apr2002                    </c></rc>
    <rc><c>   3</c><c>Mo</c><c>     95.94000000</c><c>      6.00000000</c><c> PAW_PBE Mo 08Apr2002                   </c></rc>
    <rc><c>   3</c><c>W </c><c>    183.85000000</c><c>      6.00000000</c><c> PAW_PBE W 08Apr2002                    </c></rc>
    <rc><c>  18</c><c>S </c><c>     32.06600000</c><c>      6.00000000</c><c>  PAW_PBE S 17Jan2003                   </c></rc>
   </set>
  </array>
 </atominfo>
 <structure name="initialpos" >
  <crystal>
   <varray name="basis" >
    <v>       8.66999996       5.03999989       0.00000000 </v>
    <v>      -8.66999982       5.04000013       0.00000000 </v>
    <v>       0.00000000       0.00000000      30.00000000 </v>
   </varray>
   <i name="volume">   2621.80797419 </i>
   <varray name="rec_basis" >
    <v>       0.05767013       0.09920635       0.00000000 </v>
    <v>      -0.05767013       0.09920635       0.00000000 </v>
    <v>       0.00000000       0.00000000       0.03333333 </v>
   </varray>
  </crystal>
  <varray name="positions" >
   <v>       0.00000000       0.00000000       0.00000000 </v>
   <v>       0.00000000       0.66666669       0.00000000 </v>
   <v>       0.66666669       0.66666669       0.00000000 </v>
   <v>       0.66666669       0.00000000       0.00000000 </v>
   <v>       0.33333334       0.00000000       0.00000000 </v>
   <v>       0.33333334       0.66666669       0.00000000 </v>
   <v>       1.00000000       0.33333334       0.00000000 </v>
   <v>       0.33333334       0.33333334       0.00000000 </v>
   <v>       0.66666669       0.33333334       0.00000000 </v>
   <v>       0.11068511       0.22244981       0.95539999 </v>
   <v>       0.22244981       0.11068511       0.04460000 </v>
   <v>       0.11068511       0.55578315       0.95539999 </v>
   <v>       0.22244981       0.44401845       0.04460000 </v>
   <v>       0.11068511       0.88911647       0.95539999 </v>
   <v>       0.22244981       0.77735180       0.04460000 </v>
   <v>       0.44401845       0.22244981       0.95539999 </v>
   <v>       0.55578315       0.11068511       0.04460000 </v>
   <v>       0.44401845       0.55578315       0.95539999 </v>
   <v>       0.55578315       0.44401845       0.04460000 </v>
   <v>       0.44401845       0.88911647       0.95539999 </v>
   <v>       0.55578315       0.77735180       0.04460000 </v>
   <v>       0.77735180       0.22244981       0.95539999 </v>
   <v>       0.88911647       0.11068511       0.04460000 </v>
   <v>       0.77735180       0.55578315       0.95539999 </v>
   <v>       0.88911647       0.44401845       0.04460000 </v>
   <v>       0.77735180       0.88911647       0.95539999 </v>
   <v>       0.88911647       0.77735180       0.04460000 </v>
  </varray>
 </structure>
 <calculation>
  <scstep>
   <time name="dav">   22.68   22.74</time>
   <time name="total">   22.73   22.79</time>
   <energy>
    <i name="alphaZ">     81.65567618 </i>
    <i name="ewald">  41891.17176702 </i>
    <i name="hartreedc"> -47723.81754059 </i>
    <i name="XCdc">   -242.92457071 </i>
    <i name="pawpsdc">   3467.42045192 </i>
    <i name="pawaedc">  -2871.19716117 </i>
    <i name="eentropy">     -0.54768735 </i>
    <i name="bandstr">   -237.67961337 </i>
    <i name="atom">   6761.44252427 </i>
    <i name="e_fr_energy">   1125.52384620 </i>
    <i name="e_wo_entrp">   1126.07153355 </i>
    <i name="e_0_energy">   1125.79768987 </i>
   </energy>
  </scstep>
  <scstep>
   <time name="dav">   29.75   29.82</time>
   <time name="total">   29.75   29.83</time>
   <energy>
    <i name="e_fr_energy">     -4.92701613 </i>
    <i name="e_wo_entrp">     -4.71042010 </i>
    <i name="e_0_energy">     -4.81871812 </i>
   </energy>
  </scstep>
  <scstep>
   <time name="dav">   28.63   28.70</time>
   <time name="total">   28.63   28.71</time>
   <energy>
    <i name="e_fr_energy">   -200.02627467 </i>
    <i name="e_wo_entrp">   -199.75311032 </i>
    <i name="e_0_energy">   -199.88969250 </i>
   </energy>
  </scstep>
  <scstep>
   <time name="dav">   31.90   31.98</time>
   <time name="total">   31.91   31.99</time>
   <energy>
    <i name="e_fr_energy">   -209.00759447 </i>
    <i name="e_wo_entrp">   -208.70370312 </i>
    <i name="e_0_energy">   -208.85564880 </i>
   </energy>
  </scstep>
  <scstep>
   <time name="dav">   29.00   29.07</time>
   <time name="total">   29.47   29.55</time>
   <energy>
    <i name="e_fr_energy">   -209.27402808 </i>
    <i name="e_wo_entrp">   -208.97281740 </i>
    <i name="e_0_energy">   -209.12342274 </i>
   </energy>
  </scstep>
  <scstep>
   <time name="dav">   31.36   31.44</time>
   <time name="total">   31.86   31.95</time>
   <energy>
    <i name="e_fr_energy">   -237.52627684 </i>
    <i name="e_wo_entrp">   -237.27413437 </i>
    <i name="e_0_energy">   -237.40020560 </i>
   </energy>
  </scstep>
  <scstep>
   <time name="dav">   33.83   33.91</time>
   <time name="total">   34.34   34.43</time>
   <energy>
    <i name="e_fr_energy">   -196.67098522 </i>
    <i name="e_wo_entrp">   -196.32040407 </i>
    <i name="e_0_energy">   -196.49569464 </i>
   </energy>
  </scstep>
  <scstep>
   <time name="dav">   30.90   30.97</time>
   <time name="total">   31.41   31.49</time>
   <energy>
    <i name="e_fr_energy">   -189.67804246 </i>
    <i name="e_wo_entrp">   -189.36953406 </i>
    <i name="e_0_energy">   -189.52378826 </i>
   </energy>
  </scstep>
  <scstep>
   <time name="dav">   32.90   32.98</time>
   <time name="total">   33.42   33.51</time>
   <energy>
    <i name="e_fr_energy">   -188.19186973 </i>
    <i name="e_wo_entrp">   -187.85479635 </i>
    <i name="e_0_energy">   -188.02333304 </i>
   </energy>
  </scstep>
  <scstep>
   <time name="dav">   33.62   33.70</time>
   <time name="total">   34.15   34.24</time>
   <energy>
    <i name="e_fr_energy">   -186.92805614 </i>
    <i name="e_wo_entrp">   -186.57635677 </i>
    <i name="e_0_energy">   -186.75220645 </i>
   </energy>
  </scstep>
  <scstep>
   <time name="dav">   34.18   34.26</time>
   <time name="total">   34.72   34.81</time>
   <energy>
    <i name="e_fr_energy">   -187.01782814 </i>
    <i name="e_wo_entrp">   -186.67719849 </i>
    <i name="e_0_energy">   -186.84751331 </i>
   </energy>
  </scstep>
  <scstep>
   <time name="dav">   32.44   32.52</time>
   <time name="total">   32.98   33.06</time>
   <energy>
    <i name="e_fr_energy">   -186.95439492 </i>
    <i name="e_wo_entrp">   -186.61939184 </i>
    <i name="e_0_energy">   -186.78689338 </i>
   </energy>
  </scstep>
  <scstep>
   <time name="dav">   33.46   33.54</time>
   <time name="total">   34.00   34.09</time>
   <energy>
    <i name="e_fr_energy">   -186.85671593 </i>
    <i name="e_wo_entrp">   -186.52086612 </i>
    <i name="e_0_energy">   -186.68879103 </i>
   </energy>
  </scstep>
  <scstep>
   <time name="dav">   32.99   33.07</time>
   <time name="total">   33.52   33.61</time>
   <energy>
    <i name="e_fr_energy">   -186.82217224 </i>
    <i name="e_wo_entrp">   -186.47794715 </i>
    <i name="e_0_energy">   -186.65005970 </i>
   </energy>
  </scstep>
  <scstep>
   <time name="dav">   30.13   30.21</time>
   <time name="total">   30.67   30.75</time>
   <energy>
    <i name="e_fr_energy">   -186.81752488 </i>
    <i name="e_wo_entrp">   -186.47355475 </i>
    <i name="e_0_energy">   -186.64553981 </i>
   </energy>
  </scstep>
  <scstep>
   <time name="dav">   32.77   32.85</time>
   <time name="total">   33.30   33.39</time>
   <energy>
    <i name="e_fr_energy">   -186.81902564 </i>
    <i name="e_wo_entrp">   -186.47609224 </i>
    <i name="e_0_energy">   -186.64755894 </i>
   </energy>
  </scstep>
  <scstep>
   <time name="dav">   32.06   32.14</time>
   <time name="total">   32.60   32.69</time>
   <energy>
    <i name="e_fr_energy">   -186.81530282 </i>
    <i name="e_wo_entrp">   -186.47292867 </i>
    <i name="e_0_energy">   -186.64411574 </i>
   </energy>
  </scstep>
  <scstep>
   <time name="dav">   29.65   29.72</time>
   <time name="total">   30.19   30.27</time>
   <energy>
    <i name="e_fr_energy">   -186.81507645 </i>
    <i name="e_wo_entrp">   -186.47221163 </i>
    <i name="e_0_energy">   -186.64364404 </i>
   </energy>
  </scstep>
  <scstep>
   <time name="dav">   25.94   26.01</time>
   <time name="total">   25.98   26.05</time>
   <energy>
    <i name="alphaZ">     81.65567618 </i>
    <i name="ewald">  41891.17176702 </i>
    <i name="hartreedc"> -47818.59853351 </i>
    <i name="XCdc">   -231.69937906 </i>
    <i name="pawpsdc">   4194.28293927 </i>
    <i name="pawaedc">  -3612.29615243 </i>
    <i name="eentropy">     -0.34283370 </i>
    <i name="bandstr">  -1452.43109957 </i>
    <i name="atom">   6761.44252427 </i>
    <i name="e_fr_energy">   -186.81509153 </i>
    <i name="e_wo_entrp">   -186.47225784 </i>
    <i name="e_0_energy">   -186.64367468 </i>
   </energy>
  </scstep>
  <structure>
   <crystal>
    <varray name="basis" >
     <v>       8.66999996       5.03999989       0.00000000 </v>
     <v>      -8.66999982       5.04000013       0.00000000 </v>
     <v>       0.00000000       0.00000000      30.00000000 </v>
    </varray>
    <i name="volume">   2621.80797419 </i>
    <varray name="rec_basis" >
     <v>       0.05767013       0.09920635       0.00000000 </v>
     <v>      -0.05767013       0.09920635       0.00000000 </v>
     <v>       0.00000000       0.00000000       0.03333333 </v>
    </varray>
   </crystal>
   <varray name="positions" >
    <v>       0.00000000       0.00000000       0.00000000 </v>
    <v>       0.00000000       0.66666669       0.00000000 </v>
    <v>       0.66666669       0.66666669       0.00000000 </v>
    <v>       0.66666669       0.00000000       0.00000000 </v>
    <v>       0.33333334       0.00000000       0.00000000 </v>
    <v>       0.33333334       0.66666669       0.00000000 </v>
    <v>       1.00000000       0.33333334       0.00000000 </v>
    <v>       0.33333334       0.33333334       0.00000000 </v>
    <v>       0.66666669       0.33333334       0.00000000 </v>
    <v>       0.11068511       0.22244981       0.95539999 </v>
    <v>       0.22244981       0.11068511       0.04460000 </v>
    <v>       0.11068511       0.55578315       0.95539999 </v>
    <v>       0.22244981       0.44401845       0.04460000 </v>
    <v>       0.11068511       0.88911647       0.95539999 </v>
    <v>       0.22244981       0.77735180       0.04460000 </v>
    <v>       0.44401845       0.22244981       0.95539999 </v>
    <v>       0.55578315       0.11068511       0.04460000 </v>
    <v>       0.44401845       0.55578315       0.95539999 </v>
    <v>       0.55578315       0.44401845       0.04460000 </v>
    <v>       0.44401845       0.88911647       0.95539999 </v>
    <v>       0.55578315       0.77735180       0.04460000 </v>
    <v>       0.77735180       0.22244981       0.95539999 </v>
    <v>       0.88911647       0.11068511       0.04460000 </v>
    <v>       0.77735180       0.55578315       0.95539999 </v>
    <v>       0.88911647       0.44401845       0.04460000 </v>
    <v>       0.77735180       0.88911647       0.95539999 </v>
    <v>       0.88911647       0.77735180       0.04460000 </v>
   </varray>
  </structure>
  <varray name="forces" >
   <v>       0.08357321      -0.14410227       0.02059862 </v>
   <v>       0.03863635       0.34998315      -0.00957904 </v>
   <v>      -0.34041722       0.14100586      -0.01530274 </v>
   <v>      -0.21588891      -0.43255635       0.09519571 </v>
   <v>       0.50374326      -0.03431315       0.10618354 </v>
   <v>      -0.25987850       0.43058341      -0.07666987 </v>
   <v>      -0.00228735      -0.01786975      -0.09694216 </v>
   <v>       0.00898248      -0.00553311      -0.09601590 </v>
   <v>       0.21131829      -0.36313000       0.04546553 </v>
   <v>       0.45534775      -0.54832753      -2.19898460 </v>
   <v>      -0.60226173      -0.54702024       2.11502315 </v>
   <v>      -0.64236280      -0.14898132      -2.11233195 </v>
   <v>      -0.06489475      -0.11734855       2.84598257 </v>
   <v>      -0.32971687      -0.68116009      -1.40245188 </v>
   <v>      -0.54865725      -0.68318548       2.16151671 </v>
   <v>       0.01566681       0.13388134      -2.88252851 </v>
   <v>      -0.20394144       0.16097398       2.96134954 </v>
   <v>       0.60518167       0.52959969      -2.15208448 </v>
   <v>      -0.45002076       0.57776911       2.16453413 </v>
   <v>       0.13845983      -0.02487345      -2.93005226 </v>
   <v>       0.74727697       0.02991304       2.12193112 </v>
   <v>       0.07940706       0.16514451      -2.88246667 </v>
   <v>       0.65364130       0.13687620       2.07862569 </v>
   <v>      -0.24008847       0.52539785      -1.36359851 </v>
   <v>      -0.48163538       0.56031078       2.16690955 </v>
   <v>       0.91283912      -0.00383811      -1.44233242 </v>
   <v>      -0.07202267       0.01080047       0.77802511 </v>
  </varray>
  <varray name="stress" >
   <v>       7.53491325       0.14886150      -1.64576111 </v>
   <v>       0.14886142       4.42337717       0.14835805 </v>
   <v>      -1.64576108       0.14835827      31.13957465 </v>
  </varray>
  <energy>
   <i name="e_fr_energy">   -186.81509153 </i>
   <i name="e_wo_entrp">   -186.64367468 </i>
   <i name="e_0_energy">     -0.34283370 </i>
  </energy>
  <time name="totalsc">  638.11  639.79</time>
 </calculation>
 <calculation>
  <scstep>
   <time name="dav">   22.56   22.62</time>
   <time name="total">   23.11   23.17</time>
   <energy>
    <i name="alphaZ">     78.87538162 </i>
    <i name="ewald">  39354.47279318 </i>
    <i name="hartreedc"> -45302.24479947 </i>
    <i name="XCdc">   -239.17414291 </i>
    <i name="pawpsdc">   4193.09508884 </i>
    <i name="pawaedc">  -3611.08984357 </i>
    <i name="eentropy">     -0.28232639 </i>
    <i name="bandstr">  -1422.57621037 </i>
    <i name="atom">   6761.44252427 </i>
    <i name="e_fr_energy">   -187.48153479 </i>
    <i name="e_wo_entrp">   -187.19920840 </i>
    <i name="e_0_energy">   -187.34037159 </i>
   </energy>
  </scstep>
  <scstep>
   <time name="dav">   30.68   30.76</time>
   <time name="total">   31.22   31.30</time>
   <energy>
    <i name="e_fr_energy">   -189.42269367 </i>
    <i name="e_wo_entrp">   -189.09903270 </i>
    <i name="e_0_energy">   -189.26086318 </i>
   </energy>
  </scstep>
  <scstep>
   <time name="dav">   31.45   31.53</time>
   <time name="total">   32.01   32.09</time>
   <energy>
    <i name="e_fr_energy">   -189.31583983 </i>
    <i name="e_wo_entrp">   -189.04964525 </i>
    <i name="e_0_energy">   -189.18274254 </i>
   </energy>
  </scstep>
  <scstep>
   <time name="dav">   31.71   31.78</time>
   <time name="total">   32.25   32.34</time>
   <energy>
    <i name="e_fr_energy">   -188.72544847 </i>
    <i name="e_wo_entrp">   -188.44251742 </i>
    <i name="e_0_energy">   -188.58398295 </i>
   </energy>
  </scstep>
  <scstep>
   <time name="dav">   31.72   31.80</time>
   <time name="total">   32.27   32.36</time>
   <energy>
    <i name="e_fr_energy">   -188.75105060 </i>
    <i name="e_wo_entrp">   -188.46626025 </i>
    <i name="e_0_energy">   -188.60865542 </i>
   </energy>
  </scstep>
  <scstep>
   <time name="dav">   31.29   31.37</time>
   <time name="total">   31.84   31.93</time>
   <energy>
    <i name="e_fr_energy">   -188.72557185 </i>
    <i name="e_wo_entrp">   -188.44374564 </i>
    <i name="e_0_energy">   -188.58465874 </i>
   </energy>
  </scstep>
  <scstep>
   <time name="dav">   31.88   31.96</time>
   <time name="total">   32.43   32.51</time>
   <energy>
    <i name="e_fr_energy">   -188.66171199 </i>
    <i name="e_wo_entrp">   -188.37954747 </i>
    <i name="e_0_energy">   -188.52062973 </i>
   </energy>
  </scstep>
  <scstep>
   <time name="dav">   26.15   26.21</time>
   <time name="total">   26.69   26.77</time>
   <energy>
    <i name="e_fr_energy">   -188.63993171 </i>
    <i name="e_wo_entrp">   -188.35937581 </i>
    <i name="e_0_energy">   -188.49965376 </i>
   </energy>
  </scstep>
  <scstep>
   <time name="dav">   30.14   30.21</time>
   <time name="total">   30.69   30.77</time>
   <energy>
    <i name="e_fr_energy">   -188.63870763 </i>
    <i name="e_wo_entrp">   -188.35839210 </i>
    <i name="e_0_energy">   -188.49854986 </i>
   </energy>
  </scstep>
  <scstep>
   <time name="dav">   32.63   32.71</time>
   <time name="total">   33.18   33.27</time>
   <energy>
    <i name="e_fr_energy">   -188.63860482 </i>
    <i name="e_wo_entrp">   -188.35857865 </i>
    <i name="e_0_energy">   -188.49859173 </i>
   </energy>
  </scstep>
  <scstep>
   <time name="dav">   29.54   29.61</time>
   <time name="total">   30.09   30.17</time>
   <energy>
    <i name="e_fr_energy">   -188.63772922 </i>
    <i name="e_wo_entrp">   -188.35812094 </i>
    <i name="e_0_energy">   -188.49792508 </i>
   </energy>
  </scstep>
  <scstep>
   <time name="dav">   29.09   29.16</time>
   <time name="total">   29.64   29.72</time>
   <energy>
    <i name="e_fr_energy">   -188.63800270 </i>
    <i name="e_wo_entrp">   -188.35831906 </i>
    <i name="e_0_energy">   -188.49816088 </i>
   </energy>
  </scstep>
  <scstep>
   <time name="dav">   19.45   19.50</time>
   <time name="total">   19.49   19.54</time>
   <energy>
    <i name="alphaZ">     78.87538162 </i>
    <i name="ewald">  39354.47279318 </i>
    <i name="hartreedc"> -45319.55487841 </i>
    <i name="XCdc">   -238.02899193 </i>
    <i name="pawpsdc">   3949.46548015 </i>
    <i name="pawaedc">  -3363.95543780 </i>
    <i name="eentropy">     -0.27967088 </i>
    <i name="bandstr">  -1411.07520175 </i>
    <i name="atom">   6761.44252427 </i>
    <i name="e_fr_energy">   -188.63800154 </i>
    <i name="e_wo_entrp">   -188.35833066 </i>
    <i name="e_0_energy">   -188.49816610 </i>
   </energy>
  </scstep>
  <structure>
   <crystal>
    <varray name="basis" >
     <v>       8.86320317       5.10895771       0.00000000 </v>
     <v>      -8.85881570       5.10141069       0.00000000 </v>
     <v>       0.00000000       0.00000000      30.00000000 </v>
    </varray>
    <i name="volume">   2714.22462303 </i>
    <varray name="rec_basis" >
     <v>       0.05638528       0.09791543       0.00000000 </v>
     <v>      -0.05646870       0.09796392       0.00000000 </v>
     <v>       0.00000000       0.00000000       0.03333333 </v>
    </varray>
   </crystal>
   <varray name="positions" >
    <v>      -0.00045716      -0.00092218       0.00003312 </v>
    <v>       0.00178250       0.66823421      -0.00001540 </v>
    <v>       0.66639444       0.66828863      -0.00002461 </v>
    <v>       0.66399584      -0.00146957       0.00015308 </v>
    <v>       0.33457062      -0.00156572       0.00017075 </v>
    <v>       0.33467108       0.66945047      -0.00012329 </v>
    <v>       0.99990811       0.33325418      -0.00015589 </v>
    <v>       0.33333185       0.33328187      -0.00015440 </v>
    <v>       0.66551668       0.33100749       0.00007311 </v>
    <v>       0.10932768       0.21855868       0.95186383 </v>
    <v>       0.21815619       0.10974267       0.04800114 </v>
    <v>       0.10818493       0.55685729       0.95200317 </v>
    <v>       0.22170763       0.44363737       0.04917659 </v>
    <v>       0.10650777       0.88677377       0.95314472 </v>
    <v>       0.21765365       0.77560854       0.04807591 </v>
    <v>       0.44470279       0.22304697       0.95076463 </v>
    <v>       0.55598617       0.11202293       0.04936211 </v>
    <v>       0.44823682       0.55663409       0.95193925 </v>
    <v>       0.55729631       0.44803567       0.04808076 </v>
    <v>       0.44428463       0.88861220       0.95068821 </v>
    <v>       0.55800536       0.77541592       0.04801225 </v>
    <v>       0.77836310       0.22301926       0.95076473 </v>
    <v>       0.89159009       0.10952166       0.04794261 </v>
    <v>       0.77919837       0.55896566       0.95320720 </v>
    <v>       0.89045811       0.44804007       0.04808458 </v>
    <v>       0.77987309       0.88655843       0.95308059 </v>
    <v>       0.88896778       0.77760387       0.04585113 </v>
   </varray>
  </structure>
  <varray name="forces" >
   <v>       0.00798071      -0.01199093       0.05798476 </v>
   <v>       0.10072108       0.27011815      -0.08692493 </v>
   <v>      -0.27867441       0.04307991      -0.09142601 </v>
   <v>      -0.52649228      -0.41027254       0.03125731 </v>
   <v>       0.61906675       0.25042396       0.02651458 </v>
   <v>      -0.23798445       0.40829926      -0.01420434 </v>
   <v>       0.05034088       0.03287870       0.06716692 </v>
   <v>      -0.05850858      -0.02647252       0.06654950 </v>
   <v>       0.28558714      -0.49597845      -0.05781499 </v>
   <v>      -0.05210343       0.05648707       0.01853170 </v>
   <v>      -0.06565885       0.05891104      -0.13452042 </v>
   <v>       0.01727868      -0.09723375      -0.00047578 </v>
   <v>       0.06470957      -0.09166843      -0.15119799 </v>
   <v>       0.00267046      -0.05177964       0.09507321 </v>
   <v>      -0.03292353      -0.06020871       0.15181264 </v>
   <v>      -0.06607534       0.08636099       0.01266607 </v>
   <v>      -0.04434646       0.09216388       0.32153712 </v>
   <v>       0.06914991      -0.05002054       0.01420783 </v>
   <v>       0.06482658      -0.05708795      -0.16071185 </v>
   <v>      -0.00556218      -0.00488108      -0.34878540 </v>
   <v>       0.05180297       0.00977683       0.16726725 </v>
   <v>      -0.06241468       0.09490475       0.00690550 </v>
   <v>      -0.03202514       0.09778588      -0.11726040 </v>
   <v>       0.06089344      -0.07131918       0.32343001 </v>
   <v>       0.04511209      -0.06948464      -0.16191356 </v>
   <v>       0.04074786      -0.00902680       0.10691778 </v>
   <v>      -0.01811880       0.00623472      -0.14258650 </v>
  </varray>
  <varray name="stress" >
   <v>     -20.02779144      -0.00602287       0.03134156 </v>
   <v>      -0.00602295     -19.57137202       0.01718332 </v>
   <v>       0.03134160       0.01718323      -1.74715597 </v>
  </varray>
  <energy>
   <i name="e_fr_energy">   -188.63800154 </i>
   <i name="e_wo_entrp">   -188.49816610 </i>
   <i name="e_0_energy">     -0.27967088 </i>
  </energy>
  <time name="totalsc">  427.23  428.36</time>
 </calculation>
 <calculation>
  <scstep>
   <time name="dav">   24.68   24.74</time>
   <time name="total">   25.21   25.28</time>
   <energy>
    <i name="alphaZ">     82.33074269 </i>
    <i name="ewald">  41296.01634392 </i>
    <i name="hartreedc"> -47292.19840076 </i>
    <i name="XCdc">   -233.86294038 </i>
    <i name="pawpsdc">   3948.68483220 </i>
    <i name="pawaedc">  -3363.16782537 </i>
    <i name="eentropy">     -0.23555876 </i>
    <i name="bandstr">  -1389.60631479 </i>
    <i name="atom">   6761.44252427 </i>
    <i name="e_fr_energy">   -190.59659696 </i>
    <i name="e_wo_entrp">   -190.36103821 </i>
    <i name="e_0_energy">   -190.47881759 </i>
   </energy>
  </scstep>
  <scstep>
   <time name="dav">   31.45   31.52</time>
   <time name="total">   31.97   32.06</time>
   <energy>
    <i name="e_fr_energy">   -190.52457539 </i>
    <i name="e_wo_entrp">   -190.29963418 </i>
    <i name="e_0_energy">   -190.41210478 </i>
   </energy>
  </scstep>
  <scstep>
   <time name="dav">   31.21   31.28</time>
   <time name="total">   31.73   31.82</time>
   <energy>
    <i name="e_fr_energy">   -190.07179665 </i>
    <i name="e_wo_entrp">   -189.82123214 </i>
    <i name="e_0_energy">   -189.94651439 </i>
   </energy>
  </scstep>
  <scstep>
   <time name="dav">   33.05   33.13</time>
   <time name="total">   33.59   33.67</time>
   <energy>
    <i name="e_fr_energy">   -189.85575906 </i>
    <i name="e_wo_entrp">   -189.62632322 </i>
    <i name="e_0_energy">   -189.74104114 </i>
   </energy>
  </scstep>
  <scstep>
   <time name="dav">   31.16   31.24</time>
   <time name="total">   31.70   31.78</time>
   <energy>
    <i name="e_fr_energy">   -189.76517225 </i>
    <i name="e_wo_entrp">   -189.52863505 </i>
    <i name="e_0_energy">   -189.64690365 </i>
   </energy>
  </scstep>
  <scstep>
   <time name="dav">   29.97   30.04</time>
   <time name="total">   30.50   30.59</time>
   <energy>
    <i name="e_fr_energy">   -189.75387334 </i>
    <i name="e_wo_entrp">   -189.51698284 </i>
    <i name="e_0_energy">   -189.63542809 </i>
   </energy>
  </scstep>
  <scstep>
   <time name="dav">   29.26   29.33</time>
   <time name="total">   29.79   29.87</time>
   <energy>
    <i name="e_fr_energy">   -189.75027431 </i>
    <i name="e_wo_entrp">   -189.51348431 </i>
    <i name="e_0_energy">   -189.63187931 </i>
   </energy>
  </scstep>
  <scstep>
   <time name="dav">   30.10   30.17</time>
   <time name="total">   30.63   30.71</time>
   <energy>
    <i name="e_fr_energy">   -189.74976840 </i>
    <i name="e_wo_entrp">   -189.51308810 </i>
    <i name="e_0_energy">   -189.63142825 </i>
   </energy>
  </scstep>
  <scstep>
   <time name="dav">   30.23   30.30</time>
   <time name="total">   30.77   30.85</time>
   <energy>
    <i name="e_fr_energy">   -189.75020186 </i>
    <i name="e_wo_entrp">   -189.51359608 </i>
    <i name="e_0_energy">   -189.63189897 </i>
   </energy>
  </scstep>
  <scstep>
   <time name="dav">   26.89   26.95</time>
   <time name="total">   27.42   27.49</time>
   <energy>
    <i name="e_fr_energy">   -189.75037604 </i>
    <i name="e_wo_entrp">   -189.51363821 </i>
    <i name="e_0_energy">   -189.63200713 </i>
   </energy>
  </scstep>
  <scstep>
   <time name="dav">   24.08   24.14</time>
   <time name="total">   24.62   24.68</time>
   <energy>
    <i name="e_fr_energy">   -189.74989283 </i>
    <i name="e_wo_entrp">   -189.51306049 </i>
    <i name="e_0_energy">   -189.63147666 </i>
   </energy>
  </scstep>
  <scstep>
   <time name="dav">   18.11   18.15</time>
   <time name="total">   18.14   18.20</time>
   <energy>
    <i name="alphaZ">     82.33074269 </i>
    <i name="ewald">  41296.01634392 </i>
    <i name="hartreedc"> -47267.30040657 </i>
    <i name="XCdc">   -235.25765850 </i>
    <i name="pawpsdc">   4038.77615565 </i>
    <i name="pawaedc">  -3454.47669438 </i>
    <i name="eentropy">     -0.23682079 </i>
    <i name="bandstr">  -1411.04412624 </i>
    <i name="atom">   6761.44252427 </i>
    <i name="e_fr_energy">   -189.74993995 </i>
    <i name="e_wo_entrp">   -189.51311916 </i>
    <i name="e_0_energy">   -189.63152956 </i>
   </energy>
  </scstep>
  <structure>
   <crystal>
    <varray name="basis" >
     <v>       8.67301916       5.00179089       0.00000000 </v>
     <v>      -8.66879169       4.99451643       0.00000000 </v>
     <v>       0.00000000       0.00000000      30.00000000 </v>
    </varray>
    <i name="volume">   2600.31060001 </i>
    <varray name="rec_basis" >
     <v>       0.05762215       0.10001257       0.00000000 </v>
     <v>      -0.05770608       0.10006134       0.00000000 </v>
     <v>       0.00000000       0.00000000       0.03333333 </v>
    </varray>
   </crystal>
   <varray name="positions" >
    <v>      -0.00046952      -0.00094993       0.00006612 </v>
    <v>       0.00233102       0.66858888      -0.00006487 </v>
    <v>       0.66619819       0.66862935      -0.00007664 </v>
    <v>       0.66280317      -0.00164818       0.00017087 </v>
    <v>       0.33558519      -0.00174371       0.00018584 </v>
    <v>       0.33512453       0.67036279      -0.00013138 </v>
    <v>       1.00001154       0.33326064      -0.00011767 </v>
    <v>       0.33323128       0.33329400      -0.00011653 </v>
    <v>       0.66496248       0.32990263       0.00004021 </v>
    <v>       0.10937195       0.21870338       0.95187437 </v>
    <v>       0.21819147       0.10990450       0.04792459 </v>
    <v>       0.10803902       0.55667800       0.95200290 </v>
    <v>       0.22161669       0.44342167       0.04909054 </v>
    <v>       0.10642378       0.88668460       0.95319883 </v>
    <v>       0.21752130       0.77553958       0.04816230 </v>
    <v>       0.44478355       0.22325512       0.95077184 </v>
    <v>       0.55609755       0.11221982       0.04954509 </v>
    <v>       0.44821977       0.55648377       0.95194733 </v>
    <v>       0.55726329       0.44787769       0.04798930 </v>
    <v>       0.44427111       0.88860940       0.95048972 </v>
    <v>       0.55807157       0.77538233       0.04810744 </v>
    <v>       0.77846167       0.22323817       0.95076866 </v>
    <v>       0.89172273       0.10971608       0.04787588 </v>
    <v>       0.77913777       0.55878767       0.95339126 </v>
    <v>       0.89038538       0.44788037       0.04799244 </v>
    <v>       0.77989723       0.88650405       0.95314144 </v>
    <v>       0.88896076       0.77763176       0.04576999 </v>
   </varray>
  </structure>
  <varray name="forces" >
   <v>      -0.03924883       0.06623580       0.04881673 </v>
   <v>       0.15786208       0.23741095      -0.08964467 </v>
   <v>      -0.27995833      -0.02210744      -0.09341567 </v>
   <v>      -0.62628816      -0.38873609       0.00883405 </v>
   <v>       0.64820822       0.34688893       0.00435524 </v>
   <v>      -0.21779572       0.37436445       0.00442201 </v>
   <v>       0.07467105       0.04544624       0.08499440 </v>
   <v>      -0.08420314      -0.04212615       0.08502064 </v>
   <v>       0.31644010      -0.54886461      -0.06891689 </v>
   <v>       0.03164911      -0.08311215      -0.51187609 </v>
   <v>      -0.03622726      -0.07997583       0.34772340 </v>
   <v>      -0.09162861      -0.01187938      -0.50189682 </v>
   <v>       0.01272150      -0.00320508       0.39677381 </v>
   <v>      -0.02637662      -0.08731360      -0.34169218 </v>
   <v>      -0.06934371      -0.11871016       0.65421924 </v>
   <v>      -0.02185255      -0.00031281      -0.54753328 </v>
   <v>       0.00078231       0.01250695       0.92558402 </v>
   <v>       0.05247871       0.08834887      -0.48685688 </v>
   <v>      -0.00240174       0.08306806       0.34054024 </v>
   <v>      -0.00632195       0.00035302      -0.91580843 </v>
   <v>       0.12140111       0.01007914       0.66616353 </v>
   <v>      -0.00674475       0.01463202      -0.55292040 </v>
   <v>       0.07460757       0.00238550       0.36470259 </v>
   <v>      -0.01224318       0.05223624      -0.10900663 </v>
   <v>      -0.04506524       0.05626737       0.34116767 </v>
   <v>       0.09012506      -0.00268785      -0.32857046 </v>
   <v>      -0.01524702      -0.00119239       0.27482082 </v>
  </varray>
  <varray name="stress" >
   <v>     -10.21738589      -0.03499746       0.03308399 </v>
   <v>      -0.03499745      -9.82936677      -0.01234466 </v>
   <v>       0.03308398      -0.01234453       6.49348388 </v>
  </varray>
  <energy>
   <i name="e_fr_energy">   -189.74993995 </i>
   <i name="e_wo_entrp">   -189.63152956 </i>
   <i name="e_0_energy">     -0.23682079 </i>
  </energy>
  <time name="totalsc">  388.59  389.61</time>
 </calculation>
 <calculation>
  <scstep>
   <time name="dav">   22.59   22.64</time>
   <time name="total">   23.11   23.17</time>
   <energy>
    <i name="alphaZ">     85.81982621 </i>
    <i name="ewald">  42834.35050358 </i>
    <i name="hartreedc"> -48850.26754996 </i>
    <i name="XCdc">   -232.95661015 </i>
    <i name="pawpsdc">   4038.71158153 </i>
    <i name="pawaedc">  -3454.40802471 </i>
    <i name="eentropy">     -0.20272949 </i>
    <i name="bandstr">  -1373.83893635 </i>
    <i name="atom">   6761.44252427 </i>
    <i name="e_fr_energy">   -191.34941506 </i>
    <i name="e_wo_entrp">   -191.14668557 </i>
    <i name="e_0_energy">   -191.24805031 </i>
   </energy>
  </scstep>
  <scstep>
   <time name="dav">   32.76   32.84</time>
   <time name="total">   33.28   33.36</time>
   <energy>
    <i name="e_fr_energy">   -191.15321114 </i>
    <i name="e_wo_entrp">   -190.95792994 </i>
    <i name="e_0_energy">   -191.05557054 </i>
   </energy>
  </scstep>
  <scstep>
   <time name="dav">   31.38   31.45</time>
   <time name="total">   31.89   31.98</time>
   <energy>
    <i name="e_fr_energy">   -191.29900896 </i>
    <i name="e_wo_entrp">   -191.07353661 </i>
    <i name="e_0_energy">   -191.18627279 </i>
   </energy>
  </scstep>
  <scstep>
   <time name="dav">   32.72   32.80</time>
   <time name="total">   33.24   33.33</time>
   <energy>
    <i name="e_fr_energy">   -190.89958785 </i>
    <i name="e_wo_entrp">   -190.70086900 </i>
    <i name="e_0_energy">   -190.80022842 </i>
   </energy>
  </scstep>
  <scstep>
   <time name="dav">   30.82   30.90</time>
   <time name="total">   31.34   31.43</time>
   <energy>
    <i name="e_fr_energy">   -190.78055142 </i>
    <i name="e_wo_entrp">   -190.57671643 </i>
    <i name="e_0_energy">   -190.67863393 </i>
   </energy>
  </scstep>
  <scstep>
   <time name="dav">   28.02   28.09</time>
   <time name="total">   28.54   28.62</time>
   <energy>
    <i name="e_fr_energy">   -190.76456269 </i>
    <i name="e_wo_entrp">   -190.55713548 </i>
    <i name="e_0_energy">   -190.66084908 </i>
   </energy>
  </scstep>
  <scstep>
   <time name="dav">   30.54   30.61</time>
   <time name="total">   31.06   31.15</time>
   <energy>
    <i name="e_fr_energy">   -190.76967365 </i>
    <i name="e_wo_entrp">   -190.56206001 </i>
    <i name="e_0_energy">   -190.66586683 </i>
   </energy>
  </scstep>
  <scstep>
   <time name="dav">   29.98   30.05</time>
   <time name="total">   30.50   30.58</time>
   <energy>
    <i name="e_fr_energy">   -190.76153158 </i>
    <i name="e_wo_entrp">   -190.55482571 </i>
    <i name="e_0_energy">   -190.65817864 </i>
   </energy>
  </scstep>
  <scstep>
   <time name="dav">   30.10   30.17</time>
   <time name="total">   30.62   30.71</time>
   <energy>
    <i name="e_fr_energy">   -190.76192160 </i>
    <i name="e_wo_entrp">   -190.55514181 </i>
    <i name="e_0_energy">   -190.65853170 </i>
   </energy>
  </scstep>
  <scstep>
   <time name="dav">   30.48   30.56</time>
   <time name="total">   31.00   31.08</time>
   <energy>
    <i name="e_fr_energy">   -190.76207218 </i>
    <i name="e_wo_entrp">   -190.55534056 </i>
    <i name="e_0_energy">   -190.65870637 </i>
   </energy>
  </scstep>
  <scstep>
   <time name="dav">   26.86   26.92</time>
   <time name="total">   27.38   27.45</time>
   <energy>
    <i name="e_fr_energy">   -190.76162392 </i>
    <i name="e_wo_entrp">   -190.55484741 </i>
    <i name="e_0_energy">   -190.65823566 </i>
   </energy>
  </scstep>
  <scstep>
   <time name="dav">   18.48   18.53</time>
   <time name="total">   18.52   18.57</time>
   <energy>
    <i name="alphaZ">     85.81982621 </i>
    <i name="ewald">  42834.35050358 </i>
    <i name="hartreedc"> -48822.07867233 </i>
    <i name="XCdc">   -234.28601108 </i>
    <i name="pawpsdc">   4064.29172217 </i>
    <i name="pawaedc">  -3480.18223387 </i>
    <i name="eentropy">     -0.20688873 </i>
    <i name="bandstr">  -1399.91239205 </i>
    <i name="atom">   6761.44252427 </i>
    <i name="e_fr_energy">   -190.76162182 </i>
    <i name="e_wo_entrp">   -190.55473309 </i>
    <i name="e_0_energy">   -190.65817745 </i>
   </energy>
  </scstep>
  <structure>
   <crystal>
    <varray name="basis" >
     <v>       8.48845557       4.90075925       0.00000000 </v>
     <v>      -8.48605667       4.89664644       0.00000000 </v>
     <v>       0.00000000       0.00000000      30.00000000 </v>
    </varray>
    <i name="volume">   2494.59259464 </i>
    <varray name="rec_basis" >
     <v>       0.05888713       0.10205342       0.00000000 </v>
     <v>      -0.05893659       0.10208227       0.00000000 </v>
     <v>       0.00000000       0.00000000       0.03333333 </v>
    </varray>
   </crystal>
   <varray name="positions" >
    <v>      -0.00006968      -0.00013117       0.00015946 </v>
    <v>       0.00438897       0.66934341      -0.00025278 </v>
    <v>       0.66488537       0.66934313      -0.00027174 </v>
    <v>       0.65801718      -0.00162427       0.00017023 </v>
    <v>       0.34037987      -0.00171534       0.00017615 </v>
    <v>       0.33662841       0.67338393      -0.00010649 </v>
    <v>       1.00063180       0.33327191       0.00007337 </v>
    <v>       0.33258780       0.33333230       0.00007510 </v>
    <v>       0.66257901       0.32514253      -0.00011186 </v>
    <v>       0.10873888       0.21760179       0.95036671 </v>
    <v>       0.21725717       0.10914745       0.04905171 </v>
    <v>       0.10768991       0.55730240       0.95054037 </v>
    <v>       0.22178768       0.44364944       0.05037472 </v>
    <v>       0.10565187       0.88618602       0.95212259 </v>
    <v>       0.21633006       0.77495311       0.04994105 </v>
    <v>       0.44455090       0.22305386       0.94916519 </v>
    <v>       0.55604564       0.11203320       0.05197152 </v>
    <v>       0.44928214       0.55721501       0.95051625 </v>
    <v>       0.55802665       0.44885101       0.04911759 </v>
    <v>       0.44426239       0.88864855       0.94811479 </v>
    <v>       0.55867320       0.77490775       0.04990796 </v>
    <v>       0.77840941       0.22307547       0.94915117 </v>
    <v>       0.89192274       0.10907205       0.04903792 </v>
    <v>       0.77962282       0.55957056       0.95280047 </v>
    <v>       0.89075830       0.44883703       0.04912357 </v>
    <v>       0.78029203       0.88610643       0.95209345 </v>
    <v>       0.88888392       0.77765688       0.04669142 </v>
   </varray>
  </structure>
  <varray name="forces" >
   <v>      -0.07378158       0.12460577       0.00660671 </v>
   <v>       0.16507034       0.21488094      -0.06031934 </v>
   <v>      -0.26902631      -0.03927009      -0.06160254 </v>
   <v>      -0.66822226      -0.33857801      -0.02781820 </v>
   <v>       0.62447348       0.40791103      -0.02265734 </v>
   <v>      -0.17093638       0.29905670       0.03968225 </v>
   <v>       0.13196042       0.09473798       0.05958327 </v>
   <v>      -0.15337553      -0.06543561       0.06046862 </v>
   <v>       0.34612377      -0.60129256      -0.03023191 </v>
   <v>       0.03051885      -0.05143490      -0.37549743 </v>
   <v>       0.08982061      -0.04141665       0.20375041 </v>
   <v>      -0.00396395       0.03900394      -0.35137495 </v>
   <v>      -0.05134299       0.08778424       0.26973901 </v>
   <v>       0.05059122       0.05446358      -0.23108249 </v>
   <v>      -0.03002778       0.02448712       0.45676172 </v>
   <v>       0.01868514      -0.07403091      -0.35452845 </v>
   <v>       0.01940915      -0.03739320       0.79280046 </v>
   <v>      -0.02488535       0.03370074      -0.34635476 </v>
   <v>       0.03230975       0.04764648       0.17274679 </v>
   <v>       0.00964937      -0.00959052      -0.70065493 </v>
   <v>      -0.01703466       0.03625193       0.46180024 </v>
   <v>       0.05638816      -0.05147466      -0.35775703 </v>
   <v>      -0.01865913      -0.09746415       0.21267909 </v>
   <v>       0.03698727      -0.04421629      -0.01973037 </v>
   <v>      -0.05700913      -0.00439701       0.17446198 </v>
   <v>      -0.06393097      -0.00582470      -0.22505834 </v>
   <v>      -0.00979153      -0.00271119       0.25358755 </v>
  </varray>
  <varray name="stress" >
   <v>      -5.65265364       0.12546245      -0.14542171 </v>
   <v>       0.12546247      -5.82674110       0.11939698 </v>
   <v>      -0.14542153       0.11939686       4.53117448 </v>
  </varray>
  <energy>
   <i name="e_fr_energy">   -190.76162182 </i>
   <i name="e_wo_entrp">   -190.65817745 </i>
   <i name="e_0_energy">     -0.20688873 </i>
  </energy>
  <time name="totalsc">  392.92  393.96</time>
 </calculation>
 <calculation>
  <scstep>
   <time name="dav">   22.52   22.58</time>
   <time name="total">   23.04   23.09</time>
   <energy>
    <i name="alphaZ">     90.10536645 </i>
    <i name="ewald">  44642.70887425 </i>
    <i name="hartreedc"> -50684.59127772 </i>
    <i name="XCdc">   -231.85422985 </i>
    <i name="pawpsdc">   4064.25459030 </i>
    <i name="pawaedc">  -3480.14135887 </i>
    <i name="eentropy">     -0.19531640 </i>
    <i name="bandstr">  -1353.84088756 </i>
    <i name="atom">   6761.44252427 </i>
    <i name="e_fr_energy">   -192.11171512 </i>
    <i name="e_wo_entrp">   -191.91639872 </i>
    <i name="e_0_energy">   -192.01405692 </i>
   </energy>
  </scstep>
  <scstep>
   <time name="dav">   29.15   29.22</time>
   <time name="total">   29.66   29.74</time>
   <energy>
    <i name="e_fr_energy">   -191.84049288 </i>
    <i name="e_wo_entrp">   -191.64375827 </i>
    <i name="e_0_energy">   -191.74212558 </i>
   </energy>
  </scstep>
  <scstep>
   <time name="dav">   30.73   30.80</time>
   <time name="total">   31.24   31.32</time>
   <energy>
    <i name="e_fr_energy">   -191.97023509 </i>
    <i name="e_wo_entrp">   -191.75879648 </i>
    <i name="e_0_energy">   -191.86451579 </i>
   </energy>
  </scstep>
  <scstep>
   <time name="dav">   28.87   28.94</time>
   <time name="total">   29.38   29.46</time>
   <energy>
    <i name="e_fr_energy">   -191.77336956 </i>
    <i name="e_wo_entrp">   -191.57378918 </i>
    <i name="e_0_energy">   -191.67357937 </i>
   </energy>
  </scstep>
  <scstep>
   <time name="dav">   31.53   31.61</time>
   <time name="total">   32.04   32.12</time>
   <energy>
    <i name="e_fr_energy">   -191.57807008 </i>
    <i name="e_wo_entrp">   -191.39197384 </i>
    <i name="e_0_energy">   -191.48502196 </i>
   </energy>
  </scstep>
  <scstep>
   <time name="dav">   31.56   31.64</time>
   <time name="total">   32.07   32.16</time>
   <energy>
    <i name="e_fr_energy">   -191.44030233 </i>
    <i name="e_wo_entrp">   -191.23700676 </i>
    <i name="e_0_energy">   -191.33865454 </i>
   </energy>
  </scstep>
  <scstep>
   <time name="dav">   31.23   31.30</time>
   <time name="total">   31.74   31.82</time>
   <energy>
    <i name="e_fr_energy">   -191.42370329 </i>
    <i name="e_wo_entrp">   -191.22104044 </i>
    <i name="e_0_energy">   -191.32237186 </i>
   </energy>
  </scstep>
  <scstep>
   <time name="dav">   27.86   27.93</time>
   <time name="total">   28.38   28.45</time>
   <energy>
    <i name="e_fr_energy">   -191.41907574 </i>
    <i name="e_wo_entrp">   -191.21679400 </i>
    <i name="e_0_energy">   -191.31793487 </i>
   </energy>
  </scstep>
  <scstep>
   <time name="dav">   32.13   32.20</time>
   <time name="total">   32.64   32.72</time>
   <energy>
    <i name="e_fr_energy">   -191.42106951 </i>
    <i name="e_wo_entrp">   -191.21857418 </i>
    <i name="e_0_energy">   -191.31982184 </i>
   </energy>
  </scstep>
  <scstep>
   <time name="dav">   29.77   29.85</time>
   <time name="total">   30.28   30.37</time>
   <energy>
    <i name="e_fr_energy">   -191.41930965 </i>
    <i name="e_wo_entrp">   -191.21663616 </i>
    <i name="e_0_energy">   -191.31797291 </i>
   </energy>
  </scstep>
  <scstep>
   <time name="dav">   27.56   27.62</time>
   <time name="total">   28.07   28.14</time>
   <energy>
    <i name="e_fr_energy">   -191.41911717 </i>
    <i name="e_wo_entrp">   -191.21617642 </i>
    <i name="e_0_energy">   -191.31764679 </i>
   </energy>
  </scstep>
  <scstep>
   <time name="dav">   19.59   19.64</time>
   <time name="total">   19.63   19.68</time>
   <energy>
    <i name="alphaZ">     90.10536645 </i>
    <i name="ewald">  44642.70887425 </i>
    <i name="hartreedc"> -50651.81558749 </i>
    <i name="XCdc">   -233.34553781 </i>
    <i name="pawpsdc">   4087.71489044 </i>
    <i name="pawaedc">  -3503.73034215 </i>
    <i name="eentropy">     -0.20300607 </i>
    <i name="bandstr">  -1384.29628773 </i>
    <i name="atom">   6761.44252427 </i>
    <i name="e_fr_energy">   -191.41910584 </i>
    <i name="e_wo_entrp">   -191.21609977 </i>
    <i name="e_0_energy">   -191.31760281 </i>
   </energy>
  </scstep>
  <structure>
   <crystal>
    <varray name="basis" >
     <v>       8.29100391       4.78627652       0.00000000 </v>
     <v>      -8.28221791       4.77110154       0.00000000 </v>
     <v>       0.00000000       0.00000000      30.00000000 </v>
    </varray>
    <i name="volume">   2375.94619899 </i>
    <varray name="rec_basis" >
     <v>       0.06024255       0.10457583       0.00000000 </v>
     <v>      -0.06043415       0.10468676       0.00000000 </v>
     <v>       0.00000000       0.00000000       0.03333333 </v>
    </varray>
   </crystal>
   <varray name="positions" >
    <v>       0.00099617       0.00204603       0.00019849 </v>
    <v>       0.00814816       0.67064296      -0.00050684 </v>
    <v>       0.66238170       0.67059827      -0.00053142 </v>
    <v>       0.64916866      -0.00095719       0.00005901 </v>
    <v>       0.34985468      -0.00104495       0.00008043 </v>
    <v>       0.33905440       0.67820655       0.00004835 </v>
    <v>       1.00262772       0.33346496       0.00033675 </v>
    <v>       0.33075418       0.33358124       0.00034212 </v>
    <v>       0.65770963       0.31542262      -0.00026074 </v>
    <v>       0.10802940       0.21619900       0.94832524 </v>
    <v>       0.21686603       0.10764902       0.05037872 </v>
    <v>       0.10803100       0.55820876       0.94861344 </v>
    <v>       0.22256213       0.44518397       0.05201349 </v>
    <v>       0.10621389       0.88628121       0.95074854 </v>
    <v>       0.21592960       0.77515851       0.05230609 </v>
    <v>       0.44370188       0.22187927       0.94714861 </v>
    <v>       0.55564508       0.11125361       0.05571572 </v>
    <v>       0.45003065       0.55821897       0.94861449 </v>
    <v>       0.55912924       0.44978429       0.05035332 </v>
    <v>       0.44422847       0.88851271       0.94472404 </v>
    <v>       0.55918893       0.77518125       0.05229300 </v>
    <v>       0.77809598       0.22191857       0.94712118 </v>
    <v>       0.89077420       0.10766897       0.05040381 </v>
    <v>       0.77968254       0.55944151       0.95226969 </v>
    <v>       0.89062279       0.44975860       0.05036718 </v>
    <v>       0.78002252       0.88628111       0.95074787 </v>
    <v>       0.88876479       0.77767462       0.04808930 </v>
   </varray>
  </structure>
  <varray name="forces" >
   <v>      -0.04846635       0.08170273       0.02232759 </v>
   <v>       0.10213675       0.22816008       0.00866836 </v>
   <v>      -0.24775139       0.02544911       0.01617299 </v>
   <v>      -0.08345965      -0.03022906      -0.01181276 </v>
   <v>       0.06804555       0.05049994      -0.02061519 </v>
   <v>       0.02343469      -0.03754284      -0.03116321 </v>
   <v>       0.20714834       0.19952799       0.00394048 </v>
   <v>      -0.27999549      -0.07879584       0.00250355 </v>
   <v>       0.18513832      -0.31397689       0.08753776 </v>
   <v>      -0.01049865       0.02266240      -0.12974997 </v>
   <v>       0.21647547       0.03773259      -0.08720642 </v>
   <v>       0.09456515       0.05389241      -0.05918983 </v>
   <v>      -0.08502117       0.14273250       0.13357853 </v>
   <v>       0.11598590       0.23006357       0.02053329 </v>
   <v>       0.00448856       0.16700665       0.08599744 </v>
   <v>       0.03056529      -0.12610282      -0.04338006 </v>
   <v>       0.02396207      -0.04218468       0.35461742 </v>
   <v>      -0.09118789      -0.05521684      -0.06725297 </v>
   <v>       0.09121335      -0.03373102      -0.10189941 </v>
   <v>       0.02831241      -0.04982159      -0.24535667 </v>
   <v>      -0.14709308       0.07964402       0.08269202 </v>
   <v>       0.09465110      -0.08913632      -0.04513476 </v>
   <v>      -0.14013339      -0.17064766      -0.09057583 </v>
   <v>       0.12534056      -0.21590149       0.20064857 </v>
   <v>      -0.01999008      -0.09626588      -0.10262330 </v>
   <v>      -0.25723246       0.01486172       0.01459514 </v>
   <v>      -0.00063391       0.00561722       0.00214724 </v>
  </varray>
  <varray name="stress" >
   <v>       0.47203324       0.27513001      -0.19898360 </v>
   <v>       0.27513012       0.20142460       0.32494176 </v>
   <v>      -0.19898366       0.32494188      -0.41741352 </v>
  </varray>
  <energy>
   <i name="e_fr_energy">   -191.41910584 </i>
   <i name="e_wo_entrp">   -191.31760281 </i>
   <i name="e_0_energy">     -0.20300607 </i>
  </energy>
  <time name="totalsc">  390.52  391.54</time>
 </calculation>
 <calculation>
  <scstep>
   <time name="dav">   22.56   22.61</time>
   <time name="total">   23.07   23.13</time>
   <energy>
    <i name="alphaZ">     89.87452229 </i>
    <i name="ewald">  44519.61053970 </i>
    <i name="hartreedc"> -50527.12248021 </i>
    <i name="XCdc">   -233.58195552 </i>
    <i name="pawpsdc">   4087.50187372 </i>
    <i name="pawaedc">  -3503.51026641 </i>
    <i name="eentropy">     -0.20556459 </i>
    <i name="bandstr">  -1385.46941476 </i>
    <i name="atom">   6761.44252427 </i>
    <i name="e_fr_energy">   -191.46022151 </i>
    <i name="e_wo_entrp">   -191.25465692 </i>
    <i name="e_0_energy">   -191.35743922 </i>
   </energy>
  </scstep>
  <scstep>
   <time name="dav">   33.36   33.44</time>
   <time name="total">   33.87   33.95</time>
   <energy>
    <i name="e_fr_energy">   -191.49597360 </i>
    <i name="e_wo_entrp">   -191.28229239 </i>
    <i name="e_0_energy">   -191.38913300 </i>
   </energy>
  </scstep>
  <scstep>
   <time name="dav">   31.77   31.85</time>
   <time name="total">   32.28   32.37</time>
   <energy>
    <i name="e_fr_energy">   -191.46876146 </i>
    <i name="e_wo_entrp">   -191.26310667 </i>
    <i name="e_0_energy">   -191.36593406 </i>
   </energy>
  </scstep>
  <scstep>
   <time name="dav">   29.80   29.87</time>
   <time name="total">   30.31   30.39</time>
   <energy>
    <i name="e_fr_energy">   -191.47003120 </i>
    <i name="e_wo_entrp">   -191.26411758 </i>
    <i name="e_0_energy">   -191.36707439 </i>
   </energy>
  </scstep>
  <scstep>
   <time name="dav">   27.29   27.36</time>
   <time name="total">   27.80   27.88</time>
   <energy>
    <i name="e_fr_energy">   -191.46682985 </i>
    <i name="e_wo_entrp">   -191.25942602 </i>
    <i name="e_0_energy">   -191.36312794 </i>
   </energy>
  </scstep>
  <scstep>
   <time name="dav">   28.91   28.98</time>
   <time name="total">   29.42   29.49</time>
   <energy>
    <i name="e_fr_energy">   -191.46638128 </i>
    <i name="e_wo_entrp">   -191.25996179 </i>
    <i name="e_0_energy">   -191.36317154 </i>
   </energy>
  </scstep>
  <scstep>
   <time name="dav">   24.99   25.05</time>
   <time name="total">   25.50   25.57</time>
   <energy>
    <i name="e_fr_energy">   -191.46623412 </i>
    <i name="e_wo_entrp">   -191.25977331 </i>
    <i name="e_0_energy">   -191.36300371 </i>
   </energy>
  </scstep>
  <scstep>
   <time name="dav">   19.68   19.73</time>
   <time name="total">   19.71   19.77</time>
   <energy>
    <i name="alphaZ">     89.87452229 </i>
    <i name="ewald">  44519.61053970 </i>
    <i name="hartreedc"> -50529.78334449 </i>
    <i name="XCdc">   -233.48849697 </i>
    <i name="pawpsdc">   4082.47344827 </i>
    <i name="pawaedc">  -3498.41788021 </i>
    <i name="eentropy">     -0.20651447 </i>
    <i name="bandstr">  -1382.97101807 </i>
    <i name="atom">   6761.44252427 </i>
    <i name="e_fr_energy">   -191.46621968 </i>
    <i name="e_wo_entrp">   -191.25970521 </i>
    <i name="e_0_energy">   -191.36296244 </i>
   </energy>
  </scstep>
  <structure>
   <crystal>
    <varray name="basis" >
     <v>       8.30760055       4.79642875       0.00000000 </v>
     <v>      -8.29236361       4.77007736       0.00000000 </v>
     <v>       0.00000000       0.00000000      30.00000000 </v>
    </varray>
    <i name="volume">   2382.04885528 </i>
    <varray name="rec_basis" >
     <v>       0.06007531       0.10443569       0.00000000 </v>
     <v>      -0.06040718       0.10462758       0.00000000 </v>
     <v>       0.00000000       0.00000000       0.03333333 </v>
    </varray>
   </crystal>
   <varray name="positions" >
    <v>       0.00121820       0.00249917       0.00023100 </v>
    <v>       0.00940163       0.67141478      -0.00048534 </v>
    <v>       0.66190300       0.67136805      -0.00049830 </v>
    <v>       0.64907359      -0.00089428       0.00004453 </v>
    <v>       0.34998256      -0.00101438       0.00005216 </v>
    <v>       0.33886348       0.67781095      -0.00000392 </v>
    <v>       1.00409038       0.33384200       0.00033390 </v>
    <v>       0.32966374       0.33397038       0.00033696 </v>
    <v>       0.65687174       0.31371452      -0.00012211 </v>
    <v>       0.10813748       0.21639254       0.94820357 </v>
    <v>       0.21766561       0.10728662       0.05019310 </v>
    <v>       0.10854037       0.55816828       0.94859524 </v>
    <v>       0.22298434       0.44605101       0.05215329 </v>
    <v>       0.10762459       0.88706298       0.95083278 </v>
    <v>       0.21676302       0.77594503       0.05235093 </v>
    <v>       0.44321184       0.22123163       0.94715895 </v>
    <v>       0.55552381       0.11101419       0.05612539 </v>
    <v>       0.44948127       0.55816612       0.94858310 </v>
    <v>       0.55917813       0.44932929       0.05014751 </v>
    <v>       0.44406908       0.88819943       0.94446994 </v>
    <v>       0.55914423       0.77596597       0.05233218 </v>
    <v>       0.77794223       0.22127006       0.94712928 </v>
    <v>       0.88960555       0.10729122       0.05021176 </v>
    <v>       0.77898678       0.55805237       0.95260167 </v>
    <v>       0.89010522       0.44931204       0.05016000 </v>
    <v>       0.77938858       0.88706140       0.95082207 </v>
    <v>       0.88879401       0.77770307       0.04804027 </v>
   </varray>
  </structure>
  <varray name="forces" >
   <v>      -0.03060535       0.05202158       0.04338384 </v>
   <v>       0.08088964       0.26209079      -0.00387447 </v>
   <v>      -0.26650032       0.06117065      -0.00381491 </v>
   <v>      -0.21048160      -0.14466362      -0.02341115 </v>
   <v>       0.23199277       0.10648337      -0.01935177 </v>
   <v>       0.02014695      -0.03350616      -0.03732441 </v>
   <v>       0.20955886       0.23161733       0.00927821 </v>
   <v>      -0.31167184      -0.06496669       0.00858239 </v>
   <v>       0.20767932      -0.35329736      -0.00475982 </v>
   <v>      -0.00661822       0.01464650      -0.11916368 </v>
   <v>       0.10607689       0.02386454      -0.08874391 </v>
   <v>       0.05162714       0.02919161      -0.05572248 </v>
   <v>      -0.04680768       0.07720767       0.14731950 </v>
   <v>       0.05788951       0.13210210       0.00868403 </v>
   <v>       0.01634947       0.08451412       0.07252513 </v>
   <v>      -0.00303948      -0.06091673       0.02624434 </v>
   <v>       0.03817372      -0.07172064       0.22477529 </v>
   <v>      -0.04814634      -0.02883284      -0.05822412 </v>
   <v>       0.04408297      -0.04023119      -0.11649347 </v>
   <v>       0.01786056      -0.02710384      -0.11570996 </v>
   <v>      -0.08229245       0.02760551       0.07374394 </v>
   <v>       0.05653785      -0.02786090       0.02447378 </v>
   <v>      -0.07394357      -0.08222774      -0.08804270 </v>
   <v>       0.07837649      -0.13380430       0.24582809 </v>
   <v>       0.00936440      -0.05838272      -0.11652024 </v>
   <v>      -0.14237111       0.01616198       0.00894768 </v>
   <v>      -0.00412861       0.00883698      -0.04262914 </v>
  </varray>
  <varray name="stress" >
   <v>      -0.37216358      -0.04126071      -0.05383340 </v>
   <v>      -0.04126056      -0.33278382       0.05023584 </v>
   <v>      -0.05383375       0.05023591      -1.15484866 </v>
  </varray>
  <energy>
   <i name="e_fr_energy">   -191.46621968 </i>
   <i name="e_wo_entrp">   -191.36296244 </i>
   <i name="e_0_energy">     -0.20651447 </i>
  </energy>
  <time name="totalsc">  264.43  265.12</time>
 </calculation>
 <calculation>
  <scstep>
   <time name="dav">   22.64   22.70</time>
   <time name="total">   23.16   23.21</time>
   <energy>
    <i name="alphaZ">     90.13276134 </i>
    <i name="ewald">  44631.94592770 </i>
    <i name="hartreedc"> -50645.05126947 </i>
    <i name="XCdc">   -233.33268556 </i>
    <i name="pawpsdc">   4082.24732655 </i>
    <i name="pawaedc">  -3498.18923558 </i>
    <i name="eentropy">     -0.20807702 </i>
    <i name="bandstr">  -1380.50641842 </i>
    <i name="atom">   6761.44252427 </i>
    <i name="e_fr_energy">   -191.51914618 </i>
    <i name="e_wo_entrp">   -191.31106916 </i>
    <i name="e_0_energy">   -191.41510767 </i>
   </energy>
  </scstep>
  <scstep>
   <time name="dav">   33.92   34.00</time>
   <time name="total">   34.42   34.51</time>
   <energy>
    <i name="e_fr_energy">   -191.54088838 </i>
    <i name="e_wo_entrp">   -191.32481638 </i>
    <i name="e_0_energy">   -191.43285238 </i>
   </energy>
  </scstep>
  <scstep>
   <time name="dav">   31.21   31.29</time>
   <time name="total">   31.72   31.81</time>
   <energy>
    <i name="e_fr_energy">   -191.52904755 </i>
    <i name="e_wo_entrp">   -191.32210894 </i>
    <i name="e_0_energy">   -191.42557825 </i>
   </energy>
  </scstep>
  <scstep>
   <time name="dav">   30.07   30.14</time>
   <time name="total">   30.58   30.66</time>
   <energy>
    <i name="e_fr_energy">   -191.52665661 </i>
    <i name="e_wo_entrp">   -191.31870041 </i>
    <i name="e_0_energy">   -191.42267851 </i>
   </energy>
  </scstep>
  <scstep>
   <time name="dav">   28.37   28.44</time>
   <time name="total">   28.88   28.95</time>
   <energy>
    <i name="e_fr_energy">   -191.52407603 </i>
    <i name="e_wo_entrp">   -191.31388298 </i>
    <i name="e_0_energy">   -191.41897950 </i>
   </energy>
  </scstep>
  <scstep>
   <time name="dav">   27.33   27.40</time>
   <time name="total">   27.84   27.91</time>
   <energy>
    <i name="e_fr_energy">   -191.52306509 </i>
    <i name="e_wo_entrp">   -191.31386834 </i>
    <i name="e_0_energy">   -191.41846672 </i>
   </energy>
  </scstep>
  <scstep>
   <time name="dav">   30.58   30.66</time>
   <time name="total">   31.09   31.17</time>
   <energy>
    <i name="e_fr_energy">   -191.52301876 </i>
    <i name="e_wo_entrp">   -191.31331238 </i>
    <i name="e_0_energy">   -191.41816557 </i>
   </energy>
  </scstep>
  <scstep>
   <time name="dav">   23.51   23.56</time>
   <time name="total">   24.01   24.08</time>
   <energy>
    <i name="e_fr_energy">   -191.52279277 </i>
    <i name="e_wo_entrp">   -191.31309751 </i>
    <i name="e_0_energy">   -191.41794514 </i>
   </energy>
  </scstep>
  <scstep>
   <time name="dav">   17.97   18.01</time>
   <time name="total">   18.00   18.05</time>
   <energy>
    <i name="alphaZ">     90.13276134 </i>
    <i name="ewald">  44631.94592770 </i>
    <i name="hartreedc"> -50643.50898699 </i>
    <i name="XCdc">   -233.39930114 </i>
    <i name="pawpsdc">   4084.95872984 </i>
    <i name="pawaedc">  -3500.93626920 </i>
    <i name="eentropy">     -0.20954928 </i>
    <i name="bandstr">  -1381.94858145 </i>
    <i name="atom">   6761.44252427 </i>
    <i name="e_fr_energy">   -191.52274490 </i>
    <i name="e_wo_entrp">   -191.31319562 </i>
    <i name="e_0_energy">   -191.41797026 </i>
   </energy>
  </scstep>
  <structure>
   <crystal>
    <varray name="basis" >
     <v>       8.29529192       4.78924445       0.00000000 </v>
     <v>      -8.28054233       4.76373758       0.00000000 </v>
     <v>       0.00000000       0.00000000      30.00000000 </v>
    </varray>
    <i name="volume">   2375.22405566 </i>
    <varray name="rec_basis" >
     <v>       0.06016785       0.10458646       0.00000000 </v>
     <v>      -0.06049001       0.10477275       0.00000000 </v>
     <v>       0.00000000       0.00000000       0.03333333 </v>
    </varray>
   </crystal>
   <varray name="positions" >
    <v>       0.00145654       0.00298358       0.00030758 </v>
    <v>       0.01124798       0.67264318      -0.00050070 </v>
    <v>       0.66128735       0.67259270      -0.00051304 </v>
    <v>       0.64732808      -0.00098324       0.00000005 </v>
    <v>       0.35162174      -0.00112796       0.00001405 </v>
    <v>       0.33883035       0.67773555      -0.00006384 </v>
    <v>       1.00610812       0.33445441       0.00036022 </v>
    <v>       0.32824130       0.33460863       0.00036211 </v>
    <v>       0.65540148       0.31073894      -0.00012757 </v>
    <v>       0.10816582       0.21643260       0.94790202 </v>
    <v>       0.21813402       0.10699849       0.05009790 </v>
    <v>       0.10889298       0.55820845       0.94841159 </v>
    <v>       0.22330759       0.44671790       0.05248790 </v>
    <v>       0.10859399       0.88763058       0.95078716 </v>
    <v>       0.21728146       0.77639083       0.05258204 </v>
[...]
      <set comment="kpoint 31">
       <r>  -17.5088    1.0000 </r>
       <r>  -17.2211    1.0000 </r>
       <r>  -16.9155    1.0000 </r>
       <r>  -16.5398    1.0000 </r>
       <r>  -16.5302    1.0000 </r>
       <r>  -16.4183    1.0000 </r>
       <r>  -16.2490    1.0000 </r>
       <r>  -16.2138    1.0000 </r>
       <r>  -16.1005    1.0000 </r>
       <r>  -16.0098    1.0000 </r>
       <r>  -15.9468    1.0000 </r>
       <r>  -15.8653    1.0000 </r>
       <r>  -15.7889    1.0000 </r>
       <r>  -15.6860    1.0000 </r>
       <r>  -15.6354    1.0000 </r>
       <r>  -15.5133    1.0000 </r>
       <r>  -15.4440    1.0000 </r>
       <r>  -15.3409    1.0000 </r>
       <r>   -9.7371    1.0000 </r>
       <r>   -9.4658    1.0000 </r>
       <r>   -9.2500    1.0000 </r>
       <r>   -8.9779    1.0000 </r>
       <r>   -8.8496    1.0000 </r>
       <r>   -8.6934    1.0000 </r>
       <r>   -8.5953    1.0000 </r>
       <r>   -8.4964    1.0000 </r>
       <r>   -8.4205    1.0000 </r>
       <r>   -8.3270    1.0000 </r>
       <r>   -8.3049    1.0000 </r>
       <r>   -8.1980    1.0000 </r>
       <r>   -8.0739    1.0000 </r>
       <r>   -8.0170    1.0000 </r>
       <r>   -7.9512    1.0000 </r>
       <r>   -7.8391    1.0000 </r>
       <r>   -7.8110    1.0000 </r>
       <r>   -7.6655    1.0000 </r>
       <r>   -7.6050    1.0000 </r>
       <r>   -7.4875    1.0000 </r>
       <r>   -7.3275    1.0000 </r>
       <r>   -7.2781    1.0000 </r>
       <r>   -7.1131    1.0000 </r>
       <r>   -6.9804    1.0000 </r>
       <r>   -6.9659    1.0000 </r>
       <r>   -6.9105    1.0000 </r>
       <r>   -6.8492    1.0000 </r>
       <r>   -6.7489    1.0000 </r>
       <r>   -6.6902    1.0000 </r>
       <r>   -6.6119    1.0000 </r>
       <r>   -6.5696    1.0000 </r>
       <r>   -6.5084    1.0000 </r>
       <r>   -6.4266    1.0000 </r>
       <r>   -6.3499    1.0000 </r>
       <r>   -6.2838    1.0000 </r>
       <r>   -6.1881    1.0000 </r>
       <r>   -6.1055    1.0000 </r>
       <r>   -6.0474    1.0000 </r>
       <r>   -6.0117    1.0000 </r>
       <r>   -5.9333    1.0000 </r>
       <r>   -5.8815    1.0000 </r>
       <r>   -5.8072    1.0000 </r>
       <r>   -5.7437    1.0000 </r>
       <r>   -5.6863    1.0000 </r>
       <r>   -5.4768    1.0000 </r>
       <r>   -5.4110    1.0000 </r>
       <r>   -5.3284    1.0000 </r>
       <r>   -5.1434    1.0000 </r>
       <r>   -5.0743    1.0000 </r>
       <r>   -5.0255    1.0000 </r>
       <r>   -4.8076    1.0000 </r>
       <r>   -4.6676    1.0000 </r>
       <r>   -4.5774    1.0000 </r>
       <r>   -4.4465    1.0000 </r>
       <r>   -4.3206    1.0000 </r>
       <r>   -4.2576    1.0000 </r>
       <r>   -4.0830    1.0000 </r>
       <r>   -4.0120    1.0000 </r>
       <r>   -3.8370    0.9999 </r>
       <r>   -3.5605    0.9627 </r>
       <r>   -3.4497    0.8412 </r>
       <r>   -3.3045    0.4890 </r>
       <r>   -3.1813    0.1845 </r>
       <r>   -2.8416    0.0005 </r>
       <r>   -2.7777    0.0001 </r>
       <r>   -2.6083    0.0000 </r>
       <r>   -2.5290    0.0000 </r>
       <r>   -2.4187    0.0000 </r>
       <r>   -2.2487    0.0000 </r>
       <r>   -2.1442    0.0000 </r>
       <r>   -2.1004    0.0000 </r>
       <r>   -2.0459    0.0000 </r>
       <r>   -1.8576    0.0000 </r>
       <r>   -1.5634    0.0000 </r>
       <r>   -1.4628    0.0000 </r>
       <r>   -1.3613    0.0000 </r>
       <r>   -1.3329    0.0000 </r>
       <r>   -1.2414    0.0000 </r>
       <r>   -1.1972    0.0000 </r>
       <r>   -1.0778    0.0000 </r>
       <r>   -0.9648    0.0000 </r>
       <r>   -0.8910    0.0000 </r>
       <r>   -0.8244    0.0000 </r>
       <r>   -0.7437    0.0000 </r>
       <r>   -0.6325    0.0000 </r>
       <r>   -0.5419    0.0000 </r>
       <r>   -0.4014    0.0000 </r>
       <r>   -0.3461    0.0000 </r>
       <r>   -0.2156    0.0000 </r>
       <r>   -0.0551    0.0000 </r>
       <r>   -0.0016    0.0000 </r>
       <r>    0.1524    0.0000 </r>
       <r>    0.3271    0.0000 </r>
       <r>    0.5463    0.0000 </r>
       <r>    0.7824    0.0000 </r>
       <r>    0.9441    0.0000 </r>
       <r>    1.1638    0.0000 </r>
       <r>    1.1910    0.0000 </r>
       <r>    1.3237    0.0000 </r>
       <r>    2.1337    0.0000 </r>
       <r>    2.2762    0.0000 </r>
       <r>    2.3992    0.0000 </r>
      </set>
      <set comment="kpoint 32">
       <r>  -17.5110    1.0000 </r>
       <r>  -17.1644    1.0000 </r>
       <r>  -17.0261    1.0000 </r>
       <r>  -16.5290    1.0000 </r>
       <r>  -16.4881    1.0000 </r>
       <r>  -16.3127    1.0000 </r>
       <r>  -16.2751    1.0000 </r>
       <r>  -16.2179    1.0000 </r>
       <r>  -16.1466    1.0000 </r>
       <r>  -16.0137    1.0000 </r>
       <r>  -15.9877    1.0000 </r>
       <r>  -15.8836    1.0000 </r>
       <r>  -15.7622    1.0000 </r>
       <r>  -15.6908    1.0000 </r>
       <r>  -15.6205    1.0000 </r>
       <r>  -15.5324    1.0000 </r>
       <r>  -15.4264    1.0000 </r>
       <r>  -15.3400    1.0000 </r>
       <r>   -9.6514    1.0000 </r>
       <r>   -9.5795    1.0000 </r>
       <r>   -9.3293    1.0000 </r>
       <r>   -8.9014    1.0000 </r>
       <r>   -8.7794    1.0000 </r>
       <r>   -8.6136    1.0000 </r>
       <r>   -8.5650    1.0000 </r>
       <r>   -8.4857    1.0000 </r>
       <r>   -8.3944    1.0000 </r>
       <r>   -8.3135    1.0000 </r>
       <r>   -8.2975    1.0000 </r>
       <r>   -8.2237    1.0000 </r>
       <r>   -8.1472    1.0000 </r>
       <r>   -8.0972    1.0000 </r>
       <r>   -8.0203    1.0000 </r>
       <r>   -7.9206    1.0000 </r>
       <r>   -7.8052    1.0000 </r>
       <r>   -7.6162    1.0000 </r>
       <r>   -7.5393    1.0000 </r>
       <r>   -7.4680    1.0000 </r>
       <r>   -7.3062    1.0000 </r>
       <r>   -7.2483    1.0000 </r>
       <r>   -7.1822    1.0000 </r>
       <r>   -7.0677    1.0000 </r>
       <r>   -6.9909    1.0000 </r>
       <r>   -6.8849    1.0000 </r>
       <r>   -6.8235    1.0000 </r>
       <r>   -6.7931    1.0000 </r>
       <r>   -6.7112    1.0000 </r>
       <r>   -6.6487    1.0000 </r>
       <r>   -6.5473    1.0000 </r>
       <r>   -6.4577    1.0000 </r>
       <r>   -6.3913    1.0000 </r>
       <r>   -6.3567    1.0000 </r>
       <r>   -6.2927    1.0000 </r>
       <r>   -6.1763    1.0000 </r>
       <r>   -6.1157    1.0000 </r>
       <r>   -6.0525    1.0000 </r>
       <r>   -5.9910    1.0000 </r>
       <r>   -5.9402    1.0000 </r>
       <r>   -5.8642    1.0000 </r>
       <r>   -5.7366    1.0000 </r>
       <r>   -5.6714    1.0000 </r>
       <r>   -5.5827    1.0000 </r>
       <r>   -5.5082    1.0000 </r>
       <r>   -5.4070    1.0000 </r>
       <r>   -5.3342    1.0000 </r>
       <r>   -5.2638    1.0000 </r>
       <r>   -5.1469    1.0000 </r>
       <r>   -5.0456    1.0000 </r>
       <r>   -4.8064    1.0000 </r>
       <r>   -4.6594    1.0000 </r>
       <r>   -4.5854    1.0000 </r>
       <r>   -4.4696    1.0000 </r>
       <r>   -4.3461    1.0000 </r>
       <r>   -4.2385    1.0000 </r>
       <r>   -4.0305    1.0000 </r>
       <r>   -4.0002    1.0000 </r>
       <r>   -3.8275    0.9999 </r>
       <r>   -3.5894    0.9766 </r>
       <r>   -3.4263    0.7978 </r>
       <r>   -3.2238    0.2748 </r>
       <r>   -3.1933    0.2078 </r>
       <r>   -2.8496    0.0006 </r>
       <r>   -2.8058    0.0002 </r>
       <r>   -2.6654    0.0000 </r>
       <r>   -2.5454    0.0000 </r>
       <r>   -2.3821    0.0000 </r>
       <r>   -2.2569    0.0000 </r>
       <r>   -2.1475    0.0000 </r>
       <r>   -2.0916    0.0000 </r>
       <r>   -2.0237    0.0000 </r>
       <r>   -1.8791    0.0000 </r>
       <r>   -1.5866    0.0000 </r>
       <r>   -1.4605    0.0000 </r>
       <r>   -1.3622    0.0000 </r>
       <r>   -1.3120    0.0000 </r>
       <r>   -1.2002    0.0000 </r>
       <r>   -1.1714    0.0000 </r>
       <r>   -1.0679    0.0000 </r>
       <r>   -0.9835    0.0000 </r>
       <r>   -0.9020    0.0000 </r>
       <r>   -0.8419    0.0000 </r>
       <r>   -0.7371    0.0000 </r>
       <r>   -0.5715    0.0000 </r>
       <r>   -0.4998    0.0000 </r>
       <r>   -0.4317    0.0000 </r>
       <r>   -0.3670    0.0000 </r>
       <r>   -0.2644    0.0000 </r>
       <r>   -0.1197    0.0000 </r>
       <r>    0.0134    0.0000 </r>
       <r>    0.1551    0.0000 </r>
       <r>    0.3829    0.0000 </r>
       <r>    0.4777    0.0000 </r>
       <r>    0.8232    0.0000 </r>
       <r>    0.9171    0.0000 </r>
       <r>    1.1415    0.0000 </r>
       <r>    1.2164    0.0000 </r>
       <r>    1.3017    0.0000 </r>
       <r>    2.1025    0.0000 </r>
       <r>    2.2485    0.0000 </r>
       <r>    2.5618    0.0000 </r>
      </set>
      <set comment="kpoint 33">
       <r>  -17.4821    1.0000 </r>
       <r>  -17.2775    1.0000 </r>
       <r>  -16.8901    1.0000 </r>
       <r>  -16.5409    1.0000 </r>
       <r>  -16.4950    1.0000 </r>
       <r>  -16.4308    1.0000 </r>
       <r>  -16.2429    1.0000 </r>
       <r>  -16.1953    1.0000 </r>
       <r>  -16.1445    1.0000 </r>
       <r>  -16.0085    1.0000 </r>
       <r>  -15.9822    1.0000 </r>
       <r>  -15.8468    1.0000 </r>
       <r>  -15.7312    1.0000 </r>
       <r>  -15.7026    1.0000 </r>
       <r>  -15.6399    1.0000 </r>
       <r>  -15.5492    1.0000 </r>
       <r>  -15.4217    1.0000 </r>
       <r>  -15.3484    1.0000 </r>
       <r>   -9.7319    1.0000 </r>
       <r>   -9.4214    1.0000 </r>
       <r>   -9.2961    1.0000 </r>
       <r>   -8.9085    1.0000 </r>
       <r>   -8.8456    1.0000 </r>
       <r>   -8.7425    1.0000 </r>
       <r>   -8.5900    1.0000 </r>
       <r>   -8.5353    1.0000 </r>
       <r>   -8.3793    1.0000 </r>
       <r>   -8.3293    1.0000 </r>
       <r>   -8.2682    1.0000 </r>
       <r>   -8.1860    1.0000 </r>
       <r>   -8.1054    1.0000 </r>
       <r>   -8.0539    1.0000 </r>
       <r>   -7.9596    1.0000 </r>
       <r>   -7.9169    1.0000 </r>
       <r>   -7.7781    1.0000 </r>
       <r>   -7.6647    1.0000 </r>
       <r>   -7.5656    1.0000 </r>
       <r>   -7.4326    1.0000 </r>
       <r>   -7.3778    1.0000 </r>
       <r>   -7.1949    1.0000 </r>
       <r>   -7.1067    1.0000 </r>
       <r>   -7.0443    1.0000 </r>
       <r>   -6.9999    1.0000 </r>
       <r>   -6.9453    1.0000 </r>
       <r>   -6.8742    1.0000 </r>
       <r>   -6.7956    1.0000 </r>
       <r>   -6.7236    1.0000 </r>
       <r>   -6.6639    1.0000 </r>
       <r>   -6.5107    1.0000 </r>
       <r>   -6.4489    1.0000 </r>
       <r>   -6.3988    1.0000 </r>
       <r>   -6.3516    1.0000 </r>
       <r>   -6.2865    1.0000 </r>
       <r>   -6.1345    1.0000 </r>
       <r>   -6.0859    1.0000 </r>
       <r>   -6.0584    1.0000 </r>
       <r>   -6.0269    1.0000 </r>
       <r>   -5.9265    1.0000 </r>
       <r>   -5.8687    1.0000 </r>
       <r>   -5.8040    1.0000 </r>
       <r>   -5.7348    1.0000 </r>
       <r>   -5.6242    1.0000 </r>
       <r>   -5.5281    1.0000 </r>
       <r>   -5.4686    1.0000 </r>
       <r>   -5.3658    1.0000 </r>
       <r>   -5.1618    1.0000 </r>
       <r>   -5.1216    1.0000 </r>
       <r>   -4.9075    1.0000 </r>
       <r>   -4.8115    1.0000 </r>
       <r>   -4.7217    1.0000 </r>
       <r>   -4.6037    1.0000 </r>
       <r>   -4.4249    1.0000 </r>
       <r>   -4.2963    1.0000 </r>
       <r>   -4.2277    1.0000 </r>
       <r>   -4.0334    1.0000 </r>
       <r>   -3.9846    1.0000 </r>
       <r>   -3.8193    0.9998 </r>
       <r>   -3.6543    0.9928 </r>
       <r>   -3.4625    0.8622 </r>
       <r>   -3.2316    0.2935 </r>
       <r>   -3.0829    0.0554 </r>
       <r>   -2.8966    0.0018 </r>
       <r>   -2.8239    0.0003 </r>
       <r>   -2.6883    0.0000 </r>
       <r>   -2.5712    0.0000 </r>
       <r>   -2.3608    0.0000 </r>
       <r>   -2.2736    0.0000 </r>
       <r>   -2.1565    0.0000 </r>
       <r>   -2.0676    0.0000 </r>
       <r>   -1.9819    0.0000 </r>
       <r>   -1.8791    0.0000 </r>
       <r>   -1.6028    0.0000 </r>
       <r>   -1.4508    0.0000 </r>
       <r>   -1.3686    0.0000 </r>
       <r>   -1.3029    0.0000 </r>
       <r>   -1.2065    0.0000 </r>
       <r>   -1.1150    0.0000 </r>
       <r>   -1.0742    0.0000 </r>
       <r>   -0.9692    0.0000 </r>
       <r>   -0.9105    0.0000 </r>
       <r>   -0.8300    0.0000 </r>
       <r>   -0.7470    0.0000 </r>
       <r>   -0.5614    0.0000 </r>
       <r>   -0.5216    0.0000 </r>
       <r>   -0.4491    0.0000 </r>
       <r>   -0.4153    0.0000 </r>
       <r>   -0.2694    0.0000 </r>
       <r>   -0.1698    0.0000 </r>
       <r>   -0.0128    0.0000 </r>
       <r>    0.2252    0.0000 </r>
       <r>    0.3627    0.0000 </r>
       <r>    0.4872    0.0000 </r>
       <r>    0.7973    0.0000 </r>
       <r>    0.9299    0.0000 </r>
       <r>    1.1371    0.0000 </r>
       <r>    1.2631    0.0000 </r>
       <r>    1.3204    0.0000 </r>
       <r>    2.1329    0.0000 </r>
       <r>    2.2825    0.0000 </r>
       <r>    2.3886    0.0000 </r>
      </set>
      <set comment="kpoint 34">
       <r>  -17.4418    1.0000 </r>
       <r>  -17.3560    1.0000 </r>
       <r>  -16.7312    1.0000 </r>
       <r>  -16.6592    1.0000 </r>
       <r>  -16.4937    1.0000 </r>
       <r>  -16.4782    1.0000 </r>
       <r>  -16.2495    1.0000 </r>
       <r>  -16.1912    1.0000 </r>
       <r>  -16.1232    1.0000 </r>
       <r>  -16.0001    1.0000 </r>
       <r>  -15.9808    1.0000 </r>
       <r>  -15.7902    1.0000 </r>
       <r>  -15.7233    1.0000 </r>
       <r>  -15.7099    1.0000 </r>
       <r>  -15.6697    1.0000 </r>
       <r>  -15.5527    1.0000 </r>
       <r>  -15.4273    1.0000 </r>
       <r>  -15.3525    1.0000 </r>
       <r>   -9.7678    1.0000 </r>
       <r>   -9.2944    1.0000 </r>
       <r>   -9.2180    1.0000 </r>
       <r>   -8.9822    1.0000 </r>
       <r>   -8.9641    1.0000 </r>
       <r>   -8.7938    1.0000 </r>
       <r>   -8.6250    1.0000 </r>
       <r>   -8.5291    1.0000 </r>
       <r>   -8.4161    1.0000 </r>
       <r>   -8.3234    1.0000 </r>
       <r>   -8.2848    1.0000 </r>
       <r>   -8.1558    1.0000 </r>
       <r>   -8.0322    1.0000 </r>
       <r>   -8.0236    1.0000 </r>
       <r>   -7.9573    1.0000 </r>
       <r>   -7.8176    1.0000 </r>
       <r>   -7.7741    1.0000 </r>
       <r>   -7.6579    1.0000 </r>
       <r>   -7.5808    1.0000 </r>
       <r>   -7.5259    1.0000 </r>
       <r>   -7.3362    1.0000 </r>
       <r>   -7.1837    1.0000 </r>
       <r>   -7.1649    1.0000 </r>
       <r>   -7.0224    1.0000 </r>
       <r>   -6.9987    1.0000 </r>
       <r>   -6.9315    1.0000 </r>
       <r>   -6.8923    1.0000 </r>
       <r>   -6.7485    1.0000 </r>
       <r>   -6.7058    1.0000 </r>
       <r>   -6.6081    1.0000 </r>
       <r>   -6.5411    1.0000 </r>
       <r>   -6.4830    1.0000 </r>
       <r>   -6.4057    1.0000 </r>
       <r>   -6.3614    1.0000 </r>
       <r>   -6.2516    1.0000 </r>
       <r>   -6.1903    1.0000 </r>
       <r>   -6.1425    1.0000 </r>
       <r>   -6.0444    1.0000 </r>
       <r>   -5.9992    1.0000 </r>
       <r>   -5.9489    1.0000 </r>
       <r>   -5.8744    1.0000 </r>
       <r>   -5.8081    1.0000 </r>
       <r>   -5.7429    1.0000 </r>
       <r>   -5.6078    1.0000 </r>
       <r>   -5.5557    1.0000 </r>
       <r>   -5.5143    1.0000 </r>
       <r>   -5.4677    1.0000 </r>
       <r>   -5.0596    1.0000 </r>
       <r>   -5.0105    1.0000 </r>
       <r>   -4.8662    1.0000 </r>
       <r>   -4.8584    1.0000 </r>
       <r>   -4.7872    1.0000 </r>
       <r>   -4.5358    1.0000 </r>
       <r>   -4.3958    1.0000 </r>
       <r>   -4.2880    1.0000 </r>
       <r>   -4.2137    1.0000 </r>
       <r>   -4.0282    1.0000 </r>
       <r>   -4.0129    1.0000 </r>
       <r>   -3.7960    0.9997 </r>
       <r>   -3.7138    0.9979 </r>
       <r>   -3.4877    0.8976 </r>
       <r>   -3.2163    0.2575 </r>
       <r>   -3.0074    0.0167 </r>
       <r>   -2.9709    0.0085 </r>
       <r>   -2.8280    0.0003 </r>
       <r>   -2.6803    0.0000 </r>
       <r>   -2.5894    0.0000 </r>
       <r>   -2.3491    0.0000 </r>
       <r>   -2.2868    0.0000 </r>
       <r>   -2.1598    0.0000 </r>
       <r>   -2.0573    0.0000 </r>
       <r>   -1.9568    0.0000 </r>
       <r>   -1.8730    0.0000 </r>
       <r>   -1.6063    0.0000 </r>
       <r>   -1.4302    0.0000 </r>
       <r>   -1.3945    0.0000 </r>
       <r>   -1.3003    0.0000 </r>
       <r>   -1.2025    0.0000 </r>
       <r>   -1.1129    0.0000 </r>
       <r>   -1.0796    0.0000 </r>
       <r>   -0.9225    0.0000 </r>
       <r>   -0.9157    0.0000 </r>
       <r>   -0.8219    0.0000 </r>
       <r>   -0.7230    0.0000 </r>
       <r>   -0.6838    0.0000 </r>
       <r>   -0.5376    0.0000 </r>
       <r>   -0.4554    0.0000 </r>
       <r>   -0.3653    0.0000 </r>
       <r>   -0.2270    0.0000 </r>
       <r>   -0.2123    0.0000 </r>
       <r>   -0.0599    0.0000 </r>
       <r>    0.2540    0.0000 </r>
       <r>    0.3637    0.0000 </r>
       <r>    0.4969    0.0000 </r>
       <r>    0.7878    0.0000 </r>
       <r>    0.9287    0.0000 </r>
       <r>    1.1444    0.0000 </r>
       <r>    1.2779    0.0000 </r>
       <r>    1.3480    0.0000 </r>
       <r>    2.2196    0.0000 </r>
       <r>    2.2366    0.0000 </r>
       <r>    2.3629    0.0000 </r>
      </set>
     </set>
    </set>
   </array>
  </eigenvalues>
  <separator name="orbital magnetization" >
   <v name="MAGDIPOLOUT">      0.00000000      0.00000000      0.00000000</v>
  </separator>
 </calculation>
 <structure name="finalpos" >
  <crystal>
   <varray name="basis" >
    <v>       8.38149946       4.84705662       0.00000000 </v>
    <v>      -8.35447126       4.80022514       0.00000000 </v>
    <v>       0.00000000       0.00000000      30.00000000 </v>
   </varray>
   <i name="volume">   2421.83038986 </i>
   <varray name="rec_basis" >
    <v>       0.05946195       0.10348955       0.00000000 </v>
    <v>      -0.06004207       0.10382436       0.00000000 </v>
    <v>       0.00000000       0.00000000       0.03333333 </v>
   </varray>
  </crystal>
  <varray name="positions" >
   <v>       0.00750811       0.01550485      -0.00010735 </v>
   <v>       0.02086317       0.69675015      -0.00000077 </v>
   <v>       0.67828749       0.69774551      -0.00013851 </v>
   <v>       0.63409922      -0.01695564      -0.00022924 </v>
   <v>       0.34960204      -0.00951053      -0.00072605 </v>
   <v>       0.33954868       0.67916928      -0.00036864 </v>
   <v>       1.02888907       0.33640487       0.00040508 </v>
   <v>       0.30795003       0.32295930       0.00123506 </v>
   <v>       0.64100553       0.29677209       0.00059148 </v>
   <v>       0.10888786       0.21678234       0.94445456 </v>
   <v>       0.21818358       0.10325416       0.04985053 </v>
   <v>       0.10641574       0.55684384       0.94992910 </v>
   <v>       0.22788846       0.44946124       0.05487862 </v>
   <v>       0.11107189       0.89202722       0.94918137 </v>
   <v>       0.21915772       0.77532319       0.05331136 </v>
   <v>       0.43852346       0.21775396       0.94775706 </v>
   <v>       0.55043562       0.10043260       0.05715745 </v>
   <v>       0.45122423       0.55554667       0.95153791 </v>
   <v>       0.55782337       0.44856619       0.04625567 </v>
   <v>       0.43922203       0.88207906       0.94248021 </v>
   <v>       0.55637694       0.77363673       0.05354708 </v>
   <v>       0.77959185       0.21846766       0.95074081 </v>
   <v>       0.88455772       0.10787757       0.04778713 </v>
   <v>       0.77743103       0.55427668       0.95782157 </v>
   <v>       0.89138768       0.44798875       0.04489062 </v>
   <v>       0.77924721       0.89303761       0.94926086 </v>
   <v>       0.89303473       0.78601910       0.04849691 </v>
  </varray>
 </structure>
</modeling>
