unknown system                          
           1
     8.856063    5.105191    0.000000
    -8.856062    5.105191    0.000000
     0.000000    0.000000   30.000000
   V    Mo   W    S 
   3   3   3  18
Direct configuration=     1
   0.33333334  0.66666669  0.00000000
   0.66666669  0.33333334  0.00000000
   0.00000000  0.00000000  0.00000000
   0.33333334  0.33333334  0.00000000
   0.66666669  0.00000000  0.00000000
   0.33333334  0.00000000  0.00000000
   1.00000000  0.33333334  0.00000000
   0.00000000  0.66666669  0.00000000
   0.66666669  0.66666669  0.00000000
   0.11068511  0.22244981  0.95539999
   0.22244981  0.11068511  0.04460000
   0.11068511  0.55578315  0.95539999
   0.22244981  0.44401845  0.04460000
   0.11068511  0.88911647  0.95539999
   0.22244981  0.77735180  0.04460000
   0.44401845  0.22244981  0.95539999
   0.55578315  0.11068511  0.04460000
   0.44401845  0.55578315  0.95539999
   0.55578315  0.44401845  0.04460000
   0.44401845  0.88911647  0.95539999
   0.55578315  0.77735180  0.04460000
   0.77735180  0.22244981  0.95539999
   0.88911647  0.11068511  0.04460000
   0.77735180  0.55578315  0.95539999
   0.88911647  0.44401845  0.04460000
   0.77735180  0.88911647  0.95539999
   0.88911647  0.77735180  0.04460000
unknown system                          
           1
     8.668578    4.999358    0.000000
    -8.668543    4.999298    0.000000
     0.000000    0.000000   30.000000
   V    Mo   W    S 
   3   3   3  18
Direct configuration=     2
   0.33444341  0.66780962  0.00000399
   0.66434122  0.33100798 -0.00000001
   0.00114288  0.00110996 -0.00000400
   0.33336350  0.33192100  0.00006000
   0.66525431  0.00003004 -0.00006001
   0.33471151  0.00137814 -0.00000001
   1.00002996  0.33176135  0.00004428
   0.00152079  0.66818750 -0.00000001
   0.66509474  0.66669672 -0.00004430
   0.10827719  0.21793814  0.95187615
   0.21754694  0.10876501  0.04807521
   0.11488698  0.55733733  0.95189971
   0.22343038  0.44850655  0.04802742
   0.10801606  0.89028041  0.95199101
   0.22361363  0.77468273  0.04800903
   0.44892518  0.22441059  0.95186987
   0.55774382  0.11559185  0.04813012
   0.44285686  0.55842116  0.95198238
   0.55844889  0.44283447  0.04800600
   0.44209844  0.88421374  0.95192475
   0.55127159  0.77494373  0.04812384
   0.77616765  0.22511550  0.95199395
   0.89175448  0.10952330  0.04801762
   0.77585482  0.55157547  0.95194810
   0.88490875  0.44252165  0.04805192
   0.78183993  0.89009690  0.95197262
   0.89067054  0.78155363  0.04810027
unknown system                          
           1
     8.486824    4.899850    0.000000
    -8.486885    4.899957    0.000000
     0.000000    0.000000   30.000000
   V    Mo   W    S 
   3   3   3  18
Direct configuration=     3
   0.33482287  0.66819230 -0.00000102
   0.66358399  0.33025071  0.00000022
   0.00152628  0.00149009  0.00000083
   0.33333343  0.33148715  0.00010468
   0.66483550  0.00000851 -0.00010475
   0.33513750  0.00181112 -0.00000007
   1.00004184  0.33134014  0.00009912
   0.00191975  0.66859421  0.00000005
   0.66468868  0.66671535 -0.00009908
   0.10807479  0.21791722  0.95183951
   0.21742072  0.10867185  0.04812785
   0.11476893  0.55729612  0.95197364
   0.22324397  0.44848028  0.04797016
   0.10786340  0.89009307  0.95198695
   0.22342354  0.77453287  0.04801380
   0.44907461  0.22449319  0.95177330
   0.55782608  0.11574054  0.04822617
   0.44304231  0.55856646  0.95198448
   0.55863284  0.44304291  0.04800412
   0.44200874  0.88409444  0.95187205
   0.55125669  0.77474438  0.04816116
   0.77637557  0.22529981  0.95199531
   0.89190283  0.10970534  0.04801519
   0.77590613  0.55171780  0.95207506
   0.88505196  0.44257348  0.04792437
   0.78181922  0.88991328  0.95203077
   0.89063229  0.78144184  0.04802601
unknown system                          
           1
     8.277573    4.779701    0.000000
    -8.277189    4.779035    0.000000
     0.000000    0.000000   30.000000
   V    Mo   W    S 
   3   3   3  18
Direct configuration=     4
   0.33620668  0.66959015 -0.00001390
   0.66083138  0.32749761  0.00000047
   0.00292213  0.00287259  0.00001321
   0.33317338  0.33001713  0.00022422
   0.66335207 -0.00015893 -0.00022410
   0.33654312  0.00321146  0.00000014
   1.00012649  0.33002636  0.00026317
   0.00324107  0.66990683 -0.00000012
   0.66336046  0.66679384 -0.00026336
   0.10749809  0.21677631  0.95022034
   0.21627336  0.10788486  0.04976906
   0.11577811  0.55773145  0.95078721
   0.22380190  0.44953678  0.04918553
   0.10754649  0.89074247  0.95050268
   0.22407360  0.77421251  0.04949603
   0.45030737  0.22513216  0.94995489
   0.55846521  0.11697447  0.05004477
   0.44235338  0.55886014  0.95053971
   0.55932511  0.44273135  0.04944645
   0.44121890  0.88293988  0.95023236
   0.55011073  0.77416566  0.04977798
   0.77606653  0.22599167  0.95055311
   0.89219195  0.10901855  0.04946247
   0.77539482  0.55078354  0.95111606
   0.88411541  0.44205990  0.04888343
   0.78287194  0.89047006  0.95081291
   0.89106479  0.78244565  0.04921517
unknown system                          
           1
     8.264054    4.771780    0.000000
    -8.264226    4.772077    0.000000
     0.000000    0.000000   30.000000
   V    Mo   W    S 
   3   3   3  18
Direct configuration=     5
   0.33882445  0.67242949 -0.00002575
   0.65562526  0.32228958  0.00000364
   0.00577994  0.00551302  0.00002153
   0.33265715  0.32697256  0.00029699
   0.66048784 -0.00056651 -0.00029684
   0.33885787  0.00561103 -0.00000051
   1.00037703  0.32726109  0.00042946
   0.00622074  0.67298259  0.00000035
   0.66077564  0.66711975 -0.00042856
   0.10739991  0.21558821  0.94800863
   0.21557762  0.10711394  0.05215243
   0.11709717  0.55801490  0.94931441
   0.22476710  0.45042572  0.05076930
   0.10809273  0.89212222  0.94849257
   0.22543155  0.77478944  0.05152040
   0.45119185  0.22544846  0.94732493
   0.55878399  0.11785725  0.05267015
   0.44104576  0.55841604  0.94862773
   0.55966229  0.44221039  0.05134625
   0.44047714  0.88230019  0.94783987
   0.54897927  0.77409758  0.05200256
   0.77553796  0.22632639  0.94864729
   0.89177742  0.10768239  0.05136668
   0.77472907  0.54953204  0.95002870
   0.88287061  0.44139941  0.04996450
   0.78381065  0.89145747  0.94924234
   0.89137645  0.78381979  0.05068084
unknown system                          
           1
     8.268960    4.774760    0.000000
    -8.268995    4.774822    0.000000
     0.000000    0.000000   30.000000
   V    Mo   W    S 
   3   3   3  18
Direct configuration=     6
   0.33975217  0.67390252 -0.00007130
   0.65370126  0.32036246  0.00000441
   0.00722313  0.00640981  0.00006741
   0.33242246  0.32592591  0.00028369
   0.65937962 -0.00083412 -0.00028478
   0.33898106  0.00569403  0.00000084
   1.00049819  0.32618321  0.00047345
   0.00805834  0.67479802  0.00000136
   0.65965413  0.66723261 -0.00047437
   0.10772791  0.21563500  0.94770610
   0.21611672  0.10717346  0.05248612
   0.11729863  0.55788695  0.94935285
   0.22505310  0.45011065  0.05074918
   0.10881689  0.89269665  0.94824671
   0.22600598  0.77549219  0.05174541
   0.45082790  0.22512421  0.94693723
   0.55844969  0.11748986  0.05305529
   0.44054428  0.55788332  0.94853826
   0.55935277  0.44208009  0.05144780
   0.44053225  0.88281905  0.94752925
   0.54899400  0.77440458  0.05228308
   0.77542071  0.22603434  0.94854166
   0.89122721  0.10717800  0.05148094
   0.77466098  0.54945666  0.95026983
   0.88280064  0.44132766  0.04971853
   0.78347894  0.89174055  0.94924498
   0.89123551  0.78400679  0.05066599
unknown system                          
           1
     8.244680    4.760638    0.000000
    -8.243986    4.759436    0.000000
     0.000000    0.000000   30.000000
   V    Mo   W    S 
   3   3   3  18
Direct configuration=     7
   0.34000448  0.67438815 -0.00008355
   0.65316102  0.31982043  0.00000384
   0.00771134  0.00666636  0.00007987
   0.33233445  0.32562162  0.00027482
   0.65911309 -0.00089585 -0.00027469
   0.33886565  0.00559502  0.00000077
   1.00050742  0.32576449  0.00049459
   0.00872357  0.67548756  0.00000035
   0.65928008  0.66725750 -0.00049552
   0.10778261  0.21563732  0.94771357
   0.21624813  0.10719776  0.05248429
   0.11731009  0.55785852  0.94943883
   0.22510388  0.45002531  0.05065094
   0.10894906  0.89281045  0.94823952
   0.22611970  0.77562909  0.05175544
   0.45071374  0.22501692  0.94693598
   0.55834470  0.11737605  0.05305729
   0.44042275  0.55777001  0.94859817
   0.55929005  0.44206793  0.05138864
   0.44055895  0.88295698  0.94752722
   0.54900578  0.77446587  0.05227857
   0.77540549  0.22596960  0.94859983
   0.89111954  0.10705626  0.05141915
   0.77469532  0.54948780  0.95043434
   0.88283300  0.44136361  0.04955335
   0.78339847  0.89179300  0.94934433
   0.89121209  0.78402672  0.05057995
unknown system                          
           1
     8.277636    4.780171    0.000000
    -8.277682    4.780251    0.000000
     0.000000    0.000000   30.000000
   V    Mo   W    S 
   3   3   3  18
Direct configuration=     8
   0.33967964  0.67360533 -0.00007082
   0.65373344  0.32037846  0.00000684
   0.00701524  0.00643843  0.00006148
   0.33234793  0.32576376  0.00027289
   0.65959337 -0.00065819 -0.00026749
   0.33925913  0.00616410  0.00000032
   1.00049582  0.32626894  0.00045684
   0.00748128  0.67440197 -0.00000451
   0.66008239  0.66734041 -0.00045559
   0.10778842  0.21565045  0.94761500
   0.21618846  0.10716275  0.05258974
   0.11730027  0.55781878  0.94921881
   0.22507207  0.44996579  0.05090307
   0.10896794  0.89276514  0.94822323
   0.22605911  0.77569668  0.05180297
   0.45080937  0.22512104  0.94680846
   0.55845708  0.11746723  0.05318160
   0.44058929  0.55774479  0.94841556
   0.55927433  0.44203174  0.05156121
   0.44056588  0.88298626  0.94739295
   0.54910504  0.77452293  0.05240793
   0.77534856  0.22594174  0.94842165
   0.89113935  0.10719076  0.05157712
   0.77452848  0.54936614  0.95011097
   0.88271597  0.44120428  0.04987263
   0.78340663  0.89178521  0.94911640
   0.89120997  0.78408955  0.05078064
unknown system                          
           1
     8.268434    4.775149    0.000000
    -8.268578    4.775398    0.000000
     0.000000    0.000000   30.000000
   V    Mo   W    S 
   3   3   3  18
Direct configuration=     9
   0.34091405  0.67602307 -0.00011807
   0.65129022  0.31795223  0.00000101
   0.00931590  0.00754489  0.00011754
   0.33210090  0.32464658  0.00026279
   0.65807442 -0.00116994 -0.00026182
   0.33864582  0.00533581  0.00000081
   1.00055587  0.32442637  0.00056970
   0.01095413  0.67770133 -0.00000025
   0.65790776  0.66729807 -0.00057153
   0.10791082  0.21553962  0.94756003
   0.21652208  0.10720312  0.05266017
   0.11747217  0.55783667  0.94957593
   0.22532879  0.44993520  0.05048479
   0.10931005  0.89322270  0.94804186
   0.22654061  0.77597904  0.05194669
   0.45049186  0.22475942  0.94674009
   0.55808901  0.11715625  0.05325630
   0.43995215  0.55747558  0.94862328
   0.55917373  0.44199687  0.05136861
   0.44055029  0.88320496  0.94735417
   0.54888972  0.77458590  0.05242620
   0.77533560  0.22585311  0.94862052
   0.89081705  0.10660040  0.05139945
   0.77476919  0.54948568  0.95081988
   0.88283050  0.44143761  0.04916884
   0.78328809  0.89201030  0.94950251
   0.89118368  0.78417360  0.05045040
unknown system                          
           1
     8.268867    4.776076    0.000000
    -8.268954    4.776227    0.000000
     0.000000    0.000000   30.000000
   V    Mo   W    S 
   3   3   3  18
Direct configuration=    10
   0.34119864  0.67645991 -0.00013156
   0.65067957  0.31732819  0.00000706
   0.00976672  0.00785006  0.00012513
   0.33199321  0.32426164  0.00025923
   0.65784537 -0.00116493 -0.00026052
   0.33869421  0.00544975  0.00000153
   1.00054677  0.32395820  0.00058398
   0.01144634  0.67828393  0.00000234
   0.65760654  0.66735617 -0.00058627
   0.10795251  0.21549779  0.94744088
   0.21660064  0.10717956  0.05278986
   0.11750599  0.55781007  0.94955726
   0.22539977  0.44986600  0.05050636
   0.10944822  0.89338497  0.94793473
   0.22667310  0.77613404  0.05205330
   0.45044855  0.22471072  0.94659226
   0.55803495  0.11711233  0.05339765
   0.43981754  0.55733880  0.94856233
   0.55913379  0.44195595  0.05142328
   0.44056033  0.88333731  0.94723171
   0.54889092  0.77464551  0.05254339
   0.77529929  0.22582389  0.94855603
   0.89069777  0.10642817  0.05147083
   0.77474292  0.54943245  0.95086543
   0.88278939  0.44141361  0.04911146
   0.78326280  0.89210402  0.94948459
   0.89117858  0.78425636  0.05047765
unknown system                          
           1
     8.257969    4.767965    0.000000
    -8.258137    4.768256    0.000000
     0.000000    0.000000   30.000000
   V    Mo   W    S 
   3   3   3  18
Direct configuration=    11
   0.34203377  0.67809438 -0.00016081
   0.64892544  0.31557801  0.00000283
   0.01137126  0.00865400  0.00015880
   0.33183888  0.32343159  0.00025818
   0.65694965 -0.00136225 -0.00025633
   0.33832936  0.00504436  0.00000147
   1.00048276  0.32252477  0.00066460
   0.01373446  0.68055649 -0.00000002
   0.65613987  0.66728315 -0.00066847
   0.10800849  0.21541598  0.94736859
   0.21680064  0.10718802  0.05287701
   0.11756536  0.55780374  0.94975553
   0.22552340  0.44983348  0.05027178
   0.10964069  0.89366426  0.94777227
   0.22696689  0.77631595  0.05221458
   0.45028070  0.22449683  0.94650536
   0.55782589  0.11694540  0.05348933
   0.43939948  0.55715002  0.94863605
   0.55912377  0.44195601  0.05133787
   0.44055150  0.88350725  0.94713905
   0.54878981  0.77469540  0.05261529
   0.77529658  0.22580855  0.94864326
   0.89049870  0.10602890  0.05139660
   0.77490079  0.54951360  0.95131519
   0.88286743  0.44157233  0.04866494
   0.78320565  0.89221841  0.94971318
   0.89116323  0.78429583  0.05028379
unknown system                          
           1
     8.276198    4.780398    0.000000
    -8.276363    4.780684    0.000000
     0.000000    0.000000   30.000000
   V    Mo   W    S 
   3   3   3  18
Direct configuration=    12
   0.34100874  0.67591702 -0.00012815
   0.65100940  0.31766400  0.00000614
   0.00921516  0.00764261  0.00012243
   0.33203839  0.32435658  0.00025802
   0.65796269 -0.00110562 -0.00025649
   0.33900147  0.00576607  0.00000145
   1.00066096  0.32447958  0.00057362
   0.01078202  0.67764742  0.00000009
   0.65816880  0.66748099 -0.00057644
   0.10795226  0.21554569  0.94748089
   0.21659202  0.10720277  0.05275134
   0.11749185  0.55779198  0.94952352
   0.22536360  0.44976347  0.05055516
   0.10944025  0.89324678  0.94804089
   0.22653599  0.77613219  0.05193930
   0.45048861  0.22474450  0.94662962
   0.55806377  0.11714661  0.05336026
   0.44005383  0.55738178  0.94859806
   0.55904341  0.44193335  0.05141457
   0.44058403  0.88333657  0.94728254
   0.54894131  0.77464967  0.05248980
   0.77528679  0.22574920  0.94855974
   0.89075066  0.10666076  0.05144669
   0.77465857  0.54941863  0.95075099
   0.88278344  0.44132901  0.04922157
   0.78317176  0.89207099  0.94942959
   0.89116467  0.78426186  0.05052470
unknown system                          
           1
     8.271233    4.777912    0.000000
    -8.271437    4.778266    0.000000
     0.000000    0.000000   30.000000
   V    Mo   W    S 
   3   3   3  18
Direct configuration=    13
   0.34183585  0.67754625 -0.00015703
   0.64927531  0.31593101  0.00000316
   0.01079446  0.00842297  0.00015513
   0.33181122  0.32347440  0.00024854
   0.65704054 -0.00134914 -0.00024669
   0.33866218  0.00538473  0.00000322
   1.00067571  0.32308804  0.00062850
   0.01298301  0.67986417  0.00000046
   0.65679596  0.66750843 -0.00063500
   0.10801013  0.21540582  0.94731157
   0.21675406  0.10715017  0.05293401
   0.11762584  0.55780295  0.94964722
   0.22561265  0.44981798  0.05039934
   0.10967096  0.89367079  0.94778038
   0.22696291  0.77634592  0.05219350
   0.45033705  0.22454080  0.94642541
   0.55786181  0.11699831  0.05356710
   0.43948765  0.55712185  0.94858071
   0.55906922  0.44189170  0.05140586
   0.44051937  0.88347063  0.94709754
   0.54878547  0.77469990  0.05265768
   0.77524466  0.22577211  0.94856857
   0.89048293  0.10611122  0.05147058
   0.77478860  0.54938928  0.95114175
   0.88275643  0.44146156  0.04882867
   0.78320034  0.89231252  0.94957717
   0.89117012  0.78438011  0.05041253
unknown system                          
           1
     8.269604    4.777974    0.000000
    -8.269805    4.778322    0.000000
     0.000000    0.000000   30.000000
   V    Mo   W    S 
   3   3   3  18
Direct configuration=    14
   0.34230581  0.67847050 -0.00017355
   0.64834457  0.31500332  0.00000256
   0.01169127  0.00886877  0.00017296
   0.33169912  0.32303322  0.00025068
   0.65656622 -0.00148288 -0.00024825
   0.33845409  0.00515204  0.00000307
   1.00064109  0.32226401  0.00067541
   0.01420106  0.68108002  0.00000045
   0.65596514  0.66747473 -0.00068316
   0.10803287  0.21536241  0.94727721
   0.21685260  0.10715272  0.05297125
   0.11763911  0.55780863  0.94976123
   0.22565201  0.44979984  0.05026556
   0.10975790  0.89381269  0.94769543
   0.22710606  0.77642480  0.05227701
   0.45024532  0.22443669  0.94638483
   0.55776002  0.11690901  0.05360935
   0.43927717  0.55703681  0.94862375
   0.55908165  0.44190409  0.05135491
   0.44051685  0.88355620  0.94705821
   0.54873672  0.77471943  0.05269172
   0.77525793  0.22578241  0.94861963
   0.89039047  0.10590643  0.05142968
   0.77488515  0.54944701  0.95138804
   0.88281310  0.44155805  0.04858194
   0.78316970  0.89234958  0.94970735
   0.89117144  0.78438391  0.05030261
unknown system                          
           1
     8.265267    4.773891    0.000000
    -8.265341    4.774021    0.000000
     0.000000    0.000000   30.000000
   V    Mo   W    S 
   3   3   3  18
Direct configuration=    15
   0.34319134  0.68023627 -0.00020484
   0.64658978  0.31324859  0.00000192
   0.01342134  0.00972616  0.00020549
   0.33147533  0.32218646  0.00025276
   0.65571176 -0.00170824 -0.00024875
   0.33804492  0.00472362  0.00000285
   1.00054984  0.32065172  0.00075630
   0.01648650  0.68338866  0.00000031
   0.65439139  0.66740488 -0.00076622
   0.10807519  0.21526175  0.94717984
   0.21702843  0.10714239  0.05307486
   0.11766738  0.55781009  0.94995752
   0.22574554  0.44978886  0.05003422
   0.10992489  0.89412277  0.94749768
   0.22741347  0.77658291  0.05247609
   0.45007659  0.22424603  0.94627579
   0.55757509  0.11674484  0.05372071
   0.43882035  0.55685258  0.94867066
   0.55912531  0.44192719  0.05128130
   0.44050525  0.88372134  0.94694649
   0.54863867  0.77476167  0.05279238
   0.77527796  0.22582038  0.94869177
   0.89019820  0.10545240  0.05138513
   0.77506324  0.54953173  0.95184488
   0.88289877  0.44173852  0.04812239
   0.78314689  0.89244348  0.94993482
   0.89117104  0.78440740  0.05011357
unknown system                          
           1
     8.279336    4.782024    0.000000
    -8.279621    4.782519    0.000000
     0.000000    0.000000   30.000000
   V    Mo   W    S 
   3   3   3  18
Direct configuration=    16
   0.34236694  0.67847354 -0.00018181
   0.64815842  0.31481655  0.00000219
   0.01169228  0.00892696  0.00018071
   0.33171486  0.32295358  0.00025408
   0.65649806 -0.00145641 -0.00025019
   0.33847041  0.00517037  0.00000335
   1.00066636  0.32223563  0.00070081
   0.01442067  0.68131359 -0.00000198
   0.65595601  0.66750227 -0.00070754
   0.10801477  0.21536765  0.94731616
   0.21684436  0.10716391  0.05294203
   0.11763159  0.55780270  0.94978468
   0.22564434  0.44973084  0.05023411
   0.10974182  0.89373459  0.94772773
   0.22703393  0.77641053  0.05224892
   0.45026141  0.22441828  0.94640142
   0.55774530  0.11692806  0.05359375
   0.43937842  0.55705447  0.94867903
   0.55905792  0.44191751  0.05132435
   0.44052164  0.88354105  0.94708219
   0.54874171  0.77470306  0.05265676
   0.77526698  0.22575522  0.94865050
   0.89041124  0.10601607  0.05137011
   0.77488526  0.54946436  0.95142622
   0.88282817  0.44155926  0.04854449
   0.78309732  0.89233803  0.94974049
   0.89116426  0.78437279  0.05027732
unknown system                          
           1
     8.270081    4.778569    0.000000
    -8.270280    4.778914    0.000000
     0.000000    0.000000   30.000000
   V    Mo   W    S 
   3   3   3  18
Direct configuration=    17
   0.34165895  0.67692165 -0.00016473
   0.64921235  0.31587674  0.00000291
   0.01011898  0.00818783  0.00016295
   0.33197293  0.32350808  0.00024423
   0.65696901 -0.00125202 -0.00024457
   0.33883658  0.00548847  0.00000493
   1.00092594  0.32376207  0.00063001
   0.01300808  0.67986211 -0.00000013
   0.65739753  0.66772283 -0.00063520
   0.10797947  0.21542972  0.94736738
   0.21664292  0.10712186  0.05290424
   0.11768890  0.55781732  0.94957950
   0.22576922  0.44973447  0.05047503
   0.10963183  0.89354750  0.94782544
   0.22683753  0.77629152  0.05214505
   0.45041640  0.22449179  0.94640879
   0.55781572  0.11708869  0.05358717
   0.43972311  0.55709140  0.94861954
   0.55900858  0.44184745  0.05141240
   0.44046741  0.88332621  0.94712524
   0.54878854  0.77465853  0.05260167
   0.77520531  0.22571322  0.94856579
   0.89044742  0.10636147  0.05143087
   0.77477012  0.54929601  0.95106398
   0.88265551  0.44144181  0.04890802
   0.78309478  0.89246006  0.94949955
   0.89117132  0.78441768  0.05047981
unknown system                          
           1
     8.269282    4.778546    0.000000
    -8.269437    4.778816    0.000000
     0.000000    0.000000   30.000000
   V    Mo   W    S 
   3   3   3  18
Direct configuration=    18
   0.34296856  0.67972244 -0.00020537
   0.64666395  0.31332943  0.00000084
   0.01288959  0.00948027  0.00020644
   0.33157214  0.32224725  0.00025254
   0.65571343 -0.00164791 -0.00024859
   0.33821089  0.00485448  0.00000312
   1.00075970  0.32118722  0.00075218
   0.01628730  0.68317134 -0.00000102
   0.65488153  0.66758841 -0.00076094
   0.10805767  0.21529343  0.94721518
   0.21695148  0.10711204  0.05304803
   0.11769644  0.55783032  0.94991253
   0.22582806  0.44974042  0.05008774
   0.10990138  0.89408265  0.94752789
   0.22737530  0.77654967  0.05244657
   0.45010726  0.22420577  0.94626923
   0.55753937  0.11678044  0.05373022
   0.43896132  0.55682548  0.94868063
   0.55911620  0.44190641  0.05127848
   0.44046247  0.88362542  0.94696808
   0.54865995  0.77474062  0.05275906
   0.77525557  0.22580838  0.94869818
   0.89016468  0.10560178  0.05137139
   0.77507925  0.54948418  0.95179867
   0.88284638  0.44175539  0.04817045
   0.78308205  0.89251890  0.94988131
   0.89118253  0.78442022  0.05015707
unknown system                          
           1
     8.278599    4.779858    0.000000
    -8.277796    4.778469    0.000000
     0.000000    0.000000   30.000000
   V    Mo   W    S 
   3   3   3  18
Direct configuration=    19
   0.34321472  0.68026226 -0.00021571
   0.64604680  0.31271277  0.00000032
   0.01342595  0.00972507  0.00021715
   0.33148157  0.32193399  0.00025247
   0.65540090 -0.00173483 -0.00024753
   0.33808907  0.00472959  0.00000271
   1.00079812  0.32070075  0.00078373
   0.01705585  0.68394957 -0.00000154
   0.65441057  0.66763081 -0.00079246
   0.10806981  0.21526410  0.94718577
   0.21699342  0.10709411  0.05307777
   0.11770941  0.55784305  0.94997523
   0.22587553  0.44972894  0.05001522
   0.10995975  0.89421001  0.94746057
   0.22750201  0.77660435  0.05251653
   0.45003847  0.22412220  0.94622785
   0.55746033  0.11671357  0.05377304
   0.43882136  0.55674973  0.94869690
   0.55914389  0.44191430  0.05124683
   0.44044543  0.88366478  0.94693169
   0.54863432  0.77475464  0.05279198
   0.77525880  0.22583092  0.94873054
   0.89008415  0.10546159  0.05135299
   0.77516371  0.54951013  0.95196509
   0.88287195  0.44184174  0.04800340
   0.78306439  0.89256539  0.94995423
   0.89119418  0.78443092  0.05009514
unknown system                          
           1
     8.272394    4.775402    0.000000
    -8.272393    4.775403    0.000000
     0.000000    0.000000   30.000000
   V    Mo   W    S 
   3   3   3  18
Direct configuration=    20
   0.34097730  0.67554619 -0.00015675
   0.65053343  0.31710707  0.00000239
   0.00916890  0.00788911  0.00013904
   0.33228944  0.32395242  0.00027746
   0.65827324 -0.00029031 -0.00026368
   0.33894022  0.00609718  0.00000519
   1.00022907  0.32425405  0.00061437
   0.01109684  0.67834482 -0.00001351
   0.65858252  0.66724234 -0.00061174
   0.10781675  0.21542384  0.94760897
   0.21642242  0.10726349  0.05269389
   0.11760337  0.55778196  0.94951859
   0.22536847  0.44966314  0.05052756
   0.10922921  0.89288724  0.94817018
   0.22617365  0.77599429  0.05185334
   0.45089561  0.22491867  0.94668024
   0.55826985  0.11755791  0.05330600
   0.44043002  0.55749993  0.94871766
   0.55893669  0.44179447  0.05140584
   0.44070361  0.88329863  0.94729526
   0.54895318  0.77458627  0.05240670
   0.77507926  0.22561477  0.94854896
   0.89094624  0.10698415  0.05130698
   0.77434174  0.54913329  0.95064459
   0.88251863  0.44103202  0.04931318
   0.78321048  0.89212427  0.94948257
   0.89122433  0.78451325  0.05052663
unknown system                          
           1
     8.268229    4.771069    0.000000
    -8.268092    4.770841    0.000000
     0.000000    0.000000   30.000000
   V    Mo   W    S 
   3   3   3  18
Direct configuration=    21
   0.33986231  0.67311074 -0.00011963
   0.65299526  0.31948668  0.00001833
   0.00686689  0.00686563  0.00008648
   0.33274811  0.32503191  0.00029165
   0.65972349  0.00049431 -0.00029243
   0.33951484  0.00684455  0.00000795
   0.99987041  0.32621560  0.00050677
   0.00773024  0.67519068  0.00000701
   0.66090559  0.66705522 -0.00050532
   0.10773078  0.21557431  0.94783211
   0.21615967  0.10731673  0.05251803
   0.11746562  0.55772578  0.94934820
   0.22509146  0.44954973  0.05073013
   0.10893998  0.89235953  0.94851210
   0.22555174  0.77574428  0.05147419
   0.45121089  0.22523296  0.94687094
   0.55856080  0.11787497  0.05309279
   0.44121743  0.55777658  0.94874982
   0.55884193  0.44171815  0.05146651
   0.44084052  0.88317225  0.94754549
   0.54917834  0.77452783  0.05213913
   0.77503231  0.22556988  0.94845258
   0.89128268  0.10765533  0.05132661
   0.77401495  0.54895900  0.95000959
   0.88238905  0.44070418  0.04991269
   0.78324953  0.89191980  0.94928690
   0.89123962  0.78453784  0.05073128
unknown system                          
           1
     8.259344    4.773140    0.000000
    -8.259910    4.774125    0.000000
     0.000000    0.000000   30.000000
   V    Mo   W    S 
   3   3   3  18
Direct configuration=    22
   0.33569986  0.66408481  0.00003196
   0.66193968  0.32826317  0.00002836
  -0.00160833  0.00291370 -0.00008879
   0.33420503  0.32872355  0.00030495
   0.66454009  0.00298648 -0.00029158
   0.34223084  0.01016490  0.00000731
   0.99916329  0.33378072  0.00008140
  -0.00535363  0.66291861 -0.00000486
   0.66974007  0.66677233 -0.00007953
   0.10749006  0.21622479  0.94851397
   0.21525530  0.10743195  0.05193195
   0.11703723  0.55763922  0.94863290
   0.22432222  0.44928313  0.05156708
   0.10797974  0.89056384  0.94973065
   0.22369051  0.77490175  0.05015959
   0.45219688  0.22625619  0.94744694
   0.55952607  0.11882806  0.05248605
   0.44384616  0.55856664  0.94874457
   0.55866528  0.44148847  0.05173913
   0.44104281  0.88251317  0.94834032
   0.54998520  0.77438882  0.05129054
   0.77486111  0.22554287  0.94805083
   0.89226707  0.11012855  0.05149002
   0.77303260  0.54825339  0.94770369
   0.88182079  0.43974106  0.05213213
   0.78330364  0.89129042  0.94842977
   0.89133487  0.78456387  0.05162056
unknown system                          
           1
     8.260826    4.772895    0.000000
    -8.261201    4.773549    0.000000
     0.000000    0.000000   30.000000
   V    Mo   W    S 
   3   3   3  18
Direct configuration=    23
   0.33919312  0.67142211 -0.00006096
   0.65481219  0.32126282  0.00002066
   0.00524326  0.00602747  0.00003678
   0.33288469  0.32552315  0.00028423
   0.66030906  0.00090446 -0.00028846
   0.34109927  0.00841643  0.00000833
   0.99986953  0.32784165  0.00038512
   0.00388962  0.67159746  0.00001677
   0.66290725  0.66720221 -0.00039295
   0.10772323  0.21587576  0.94791980
   0.21604931  0.10720834  0.05245134
   0.11721339  0.55782718  0.94928165
   0.22496664  0.44941273  0.05079670
   0.10888021  0.89228991  0.94874406
   0.22543364  0.77565140  0.05113537
   0.45113655  0.22530995  0.94680903
   0.55859029  0.11780306  0.05314768
   0.44150544  0.55764633  0.94871759
   0.55903314  0.44176849  0.05149376
   0.44072407  0.88305438  0.94776676
   0.54948578  0.77453378  0.05191007
   0.77515809  0.22584542  0.94835762
   0.89118097  0.10791570  0.05147518
   0.77408449  0.54880563  0.94967324
   0.88230628  0.44079552  0.05019351
   0.78313687  0.89183598  0.94918165
   0.89139806  0.78443713  0.05093536
unknown system                          
           1
     8.257429    4.770612    0.000000
    -8.257984    4.771579    0.000000
     0.000000    0.000000   30.000000
   V    Mo   W    S 
   3   3   3  18
Direct configuration=    24
   0.33894503  0.67061539 -0.00004091
   0.65561381  0.32202778  0.00001106
   0.00451742  0.00568712  0.00002672
   0.33279745  0.32551857  0.00026223
   0.66044287  0.00107993 -0.00025966
   0.34205683  0.00940801  0.00001283
   0.99996564  0.32859916  0.00032839
   0.00185147  0.66982214  0.00000790
   0.66404787  0.66740439 -0.00034177
   0.10769864  0.21596312  0.94794793
   0.21598862  0.10713665  0.05241778
   0.11716454  0.55785988  0.94920747
   0.22492465  0.44937125  0.05087537
   0.10886523  0.89220441  0.94892709
   0.22534742  0.77562844  0.05092416
   0.45119483  0.22541238  0.94677669
   0.55868444  0.11787670  0.05318718
   0.44175134  0.55762002  0.94870844
   0.55908238  0.44178238  0.05151688
   0.44063074  0.88297473  0.94782982