   27   27  100    1
  0.9710400E+02  0.1002848E-08  0.1002848E-08  0.3000000E-08  0.5000000E-15
  1.000000000000000E-004
  CAR 
 unknown system                          
    159     34    120
 
  0.0000000E+00  0.0000000E+00  0.0000000E+00  0.1562500E-01
    1      -17.833114   1.000000
    2      -16.738723   1.000000
    3      -16.645137   1.000000
    4      -16.611285   1.000000
    5      -16.536681   1.000000
    6      -16.424059   1.000000
    7      -16.372183   1.000000
    8      -16.346216   1.000000
    9      -16.189431   1.000000
   10      -16.142993   1.000000
   11      -16.081246   1.000000
   12      -15.958857   1.000000
   13      -15.941965   1.000000
   14      -15.744491   1.000000
   15      -15.561698   1.000000
   16      -15.500830   1.000000
   17      -15.254220   1.000000
   18      -15.124216   1.000000
   19       -9.308904   1.000000
   20       -9.068407   1.000000
   21       -8.844183   1.000000
   22       -8.823181   1.000000
   23       -8.766618   1.000000
   24       -8.744745   1.000000
   25       -8.742672   1.000000
   26       -8.603314   1.000000
   27       -8.581876   1.000000
   28       -8.425096   1.000000
   29       -8.407865   1.000000
   30       -8.364703   1.000000
   31       -8.300836   1.000000
   32       -8.268656   1.000000
   33       -8.172905   1.000000
   34       -8.162227   1.000000
   35       -7.760282   1.000000
   36       -7.688887   1.000000
   37       -7.685226   1.000000
   38       -7.586668   1.000000
   39       -7.514548   1.000000
   40       -7.383007   1.000000
   41       -7.214624   1.000000
   42       -7.183872   1.000000
   43       -7.124167   1.000000
   44       -6.895401   1.000000
   45       -6.805700   1.000000
   46       -6.766148   1.000000
   47       -6.759456   1.000000
   48       -6.700435   1.000000
   49       -6.630669   1.000000
   50       -6.543332   1.000000
   51       -6.533584   1.000000
   52       -6.250449   1.000000
   53       -6.206525   1.000000
   54       -6.119480   1.000000
   55       -6.053441   1.000000
   56       -6.029925   1.000000
   57       -5.932346   1.000000
   58       -5.918890   1.000000
   59       -5.833446   1.000000
   60       -5.828796   1.000000
   61       -5.638695   1.000000
   62       -5.370330   1.000000
   63       -5.327238   1.000000
   64       -5.049137   1.000000
   65       -4.988208   1.000000
   66       -4.913732   1.000000
   67       -4.804021   1.000000
   68       -4.778183   1.000000
   69       -4.761881   1.000000
   70       -4.658984   1.000000
   71       -4.620078   1.000000
   72       -4.615925   1.000000
   73       -4.522681   1.000000
   74       -4.375365   1.000000
   75       -4.315322   1.000000
   76       -3.982942   1.000000
   77       -3.762472   0.999868
   78       -3.636294   0.997072
   79       -3.510526   0.969006
   80       -3.151476   0.250640
   81       -3.130487   0.205853
   82       -2.724665   0.000112
   83       -2.716310   0.000089
   84       -2.613127   0.000004
   85       -2.493976   0.000000
   86       -2.434855   0.000000
   87       -2.253331   0.000000
   88       -2.168177   0.000000
   89       -2.154350   0.000000
   90       -1.980337   0.000000
   91       -1.972270   0.000000
   92       -1.640504   0.000000
   93       -1.392751   0.000000
   94       -1.287884   0.000000
   95       -1.226511   0.000000
   96       -0.965605   0.000000
   97       -0.902931   0.000000
   98       -0.837403   0.000000
   99       -0.835161   0.000000
  100       -0.642430   0.000000
  101       -0.640071   0.000000
  102       -0.546401   0.000000
  103       -0.254495   0.000000
  104       -0.178876   0.000000
  105       -0.131576   0.000000
  106       -0.019797   0.000000
  107       -0.009598   0.000000
  108        0.055523   0.000000
  109        0.127542   0.000000
  110        0.133863   0.000000
  111        0.192343   0.000000
  112        0.308698   0.000000
  113        0.523640   0.000000
  114        0.915884   0.000000
  115        0.952067   0.000000
  116        1.237045   0.000000
  117        1.280422   0.000000
  118        1.660920   0.000000
  119        1.849923   0.000000
  120        2.179375   0.000000
 
  0.1250000E+00  0.2775558E-16  0.0000000E+00  0.3125000E-01
    1      -17.807488   1.000000
    2      -16.779198   1.000000
    3      -16.736600   1.000000
    4      -16.602577   1.000000
    5      -16.558116   1.000000
    6      -16.441561   1.000000
    7      -16.375936   1.000000
    8      -16.283806   1.000000
    9      -16.207873   1.000000
   10      -16.085963   1.000000
   11      -16.039802   1.000000
   12      -15.990275   1.000000
   13      -15.874584   1.000000
   14      -15.739553   1.000000
   15      -15.566231   1.000000
   16      -15.504518   1.000000
   17      -15.269229   1.000000
   18      -15.132062   1.000000
   19       -9.286799   1.000000
   20       -9.184027   1.000000
   21       -9.046613   1.000000
   22       -8.969331   1.000000
   23       -8.820611   1.000000
   24       -8.720452   1.000000
   25       -8.677321   1.000000
   26       -8.579325   1.000000
   27       -8.518656   1.000000
   28       -8.472149   1.000000
   29       -8.414897   1.000000
   30       -8.349369   1.000000
   31       -8.279901   1.000000
   32       -8.087647   1.000000
   33       -8.021093   1.000000
   34       -7.986635   1.000000
   35       -7.828684   1.000000
   36       -7.718244   1.000000
   37       -7.685046   1.000000
   38       -7.526063   1.000000
   39       -7.445150   1.000000
   40       -7.365930   1.000000
   41       -7.258813   1.000000
   42       -7.197622   1.000000
   43       -7.158558   1.000000
   44       -6.925440   1.000000
   45       -6.884484   1.000000
   46       -6.829321   1.000000
   47       -6.753377   1.000000
   48       -6.654595   1.000000
   49       -6.607157   1.000000
   50       -6.545092   1.000000
   51       -6.496487   1.000000
   52       -6.263052   1.000000
   53       -6.227881   1.000000
   54       -6.124526   1.000000
   55       -6.089415   1.000000
   56       -6.039807   1.000000
   57       -5.933738   1.000000
   58       -5.864145   1.000000
   59       -5.835452   1.000000
   60       -5.699999   1.000000
   61       -5.583679   1.000000
   62       -5.400216   1.000000
   63       -5.344381   1.000000
   64       -5.126984   1.000000
   65       -5.071577   1.000000
   66       -4.981267   1.000000
   67       -4.970765   1.000000
   68       -4.874881   1.000000
   69       -4.779459   1.000000
   70       -4.690534   1.000000
   71       -4.537483   1.000000
   72       -4.423430   1.000000
   73       -4.386129   1.000000
   74       -4.358314   1.000000
   75       -4.287499   1.000000
   76       -3.901674   0.999998
   77       -3.812466   0.999969
   78       -3.714950   0.999537
   79       -3.494108   0.959966
   80       -3.392638   0.849150
   81       -2.907457   0.008243
   82       -2.789875   0.000620
   83       -2.709435   0.000073
   84       -2.633718   0.000007
   85       -2.503731   0.000000
   86       -2.453910   0.000000
   87       -2.221756   0.000000
   88       -2.117800   0.000000
   89       -2.079624   0.000000
   90       -1.992139   0.000000
   91       -1.938218   0.000000
   92       -1.644245   0.000000
   93       -1.391931   0.000000
   94       -1.298876   0.000000
   95       -1.214971   0.000000
   96       -0.974860   0.000000
   97       -0.913319   0.000000
   98       -0.833576   0.000000
   99       -0.809261   0.000000
  100       -0.707782   0.000000
  101       -0.669261   0.000000
  102       -0.602593   0.000000
  103       -0.345858   0.000000
  104       -0.293257   0.000000
  105       -0.217835   0.000000
  106       -0.123746   0.000000
  107       -0.030172   0.000000
  108       -0.007646   0.000000
  109        0.103936   0.000000
  110        0.192123   0.000000
  111        0.258895   0.000000
  112        0.459261   0.000000
  113        0.618069   0.000000
  114        0.768124   0.000000
  115        1.056454   0.000000
  116        1.236378   0.000000
  117        1.316763   0.000000
  118        1.705976   0.000000
  119        1.889416   0.000000
  120        2.214950   0.000000
 
  0.2500000E+00  0.5551115E-16  0.0000000E+00  0.3125000E-01
    1      -17.732016   1.000000
    2      -16.990470   1.000000
    3      -16.735070   1.000000
    4      -16.652489   1.000000
    5      -16.597590   1.000000
    6      -16.475908   1.000000
    7      -16.338937   1.000000
    8      -16.208584   1.000000
    9      -16.163904   1.000000
   10      -16.100491   1.000000
   11      -16.009068   1.000000
   12      -15.899224   1.000000
   13      -15.801290   1.000000
   14      -15.722467   1.000000
   15      -15.576984   1.000000
   16      -15.502131   1.000000
   17      -15.304769   1.000000
   18      -15.154668   1.000000
   19       -9.503519   1.000000
   20       -9.241334   1.000000
   21       -9.160666   1.000000
   22       -9.107679   1.000000
   23       -8.893597   1.000000
   24       -8.801700   1.000000
   25       -8.719274   1.000000
   26       -8.517861   1.000000
   27       -8.450947   1.000000
   28       -8.412651   1.000000
   29       -8.381774   1.000000
   30       -8.236947   1.000000
   31       -8.152410   1.000000
   32       -8.036117   1.000000
   33       -7.982752   1.000000
   34       -7.849366   1.000000
   35       -7.736800   1.000000
   36       -7.655518   1.000000
   37       -7.531520   1.000000
   38       -7.504117   1.000000
   39       -7.440612   1.000000
   40       -7.392421   1.000000
   41       -7.285225   1.000000
   42       -7.255621   1.000000
   43       -7.062457   1.000000
   44       -6.973469   1.000000
   45       -6.922567   1.000000
   46       -6.851863   1.000000
   47       -6.786183   1.000000
   48       -6.668507   1.000000
   49       -6.596367   1.000000
   50       -6.448046   1.000000
   51       -6.413096   1.000000
   52       -6.292798   1.000000
   53       -6.263943   1.000000
   54       -6.173159   1.000000
   55       -6.103057   1.000000
   56       -6.046818   1.000000
   57       -5.871447   1.000000
   58       -5.832656   1.000000
   59       -5.780909   1.000000
   60       -5.656136   1.000000
   61       -5.530350   1.000000
   62       -5.528200   1.000000
   63       -5.466521   1.000000
   64       -5.288414   1.000000
   65       -5.181986   1.000000
   66       -5.118047   1.000000
   67       -5.002173   1.000000
   68       -4.897962   1.000000
   69       -4.795492   1.000000
   70       -4.650702   1.000000
   71       -4.471310   1.000000
   72       -4.346157   1.000000
   73       -4.294416   1.000000
   74       -4.218231   1.000000
   75       -4.167017   1.000000
   76       -4.028884   1.000000
   77       -3.905609   0.999998
   78       -3.755724   0.999841
   79       -3.483326   0.952940
   80       -3.406336   0.870689
   81       -2.979673   0.029559
   82       -2.783314   0.000527
   83       -2.724619   0.000112
   84       -2.572654   0.000001
   85       -2.509161   0.000000
   86       -2.425199   0.000000
   87       -2.226554   0.000000
   88       -2.086677   0.000000
   89       -2.001023   0.000000
   90       -1.926887   0.000000
   91       -1.804546   0.000000
   92       -1.641802   0.000000
   93       -1.390978   0.000000
   94       -1.332986   0.000000
   95       -1.195641   0.000000
   96       -1.006570   0.000000
   97       -0.927651   0.000000
   98       -0.880760   0.000000
   99       -0.826117   0.000000
  100       -0.784490   0.000000
  101       -0.737666   0.000000
  102       -0.708983   0.000000
  103       -0.549261   0.000000
  104       -0.444204   0.000000
  105       -0.346846   0.000000
  106       -0.239362   0.000000
  107       -0.139227   0.000000
  108       -0.062342   0.000000
  109        0.068034   0.000000
  110        0.229385   0.000000
  111        0.282912   0.000000
  112        0.589461   0.000000
  113        0.689632   0.000000
  114        0.826907   0.000000
  115        1.104088   0.000000
  116        1.262792   0.000000
  117        1.417312   0.000000
  118        1.831598   0.000000
  119        2.002488   0.000000
  120        2.320556   0.000000
 
  0.3750000E+00  0.0000000E+00  0.0000000E+00  0.3125000E-01
    1      -17.613028   1.000000
    2      -17.207210   1.000000
    3      -16.739500   1.000000
    4      -16.698802   1.000000
    5      -16.600578   1.000000
    6      -16.522155   1.000000
    7      -16.298848   1.000000
    8      -16.178463   1.000000
    9      -16.132376   1.000000
   10      -16.102240   1.000000
   11      -15.929603   1.000000
   12      -15.844332   1.000000
   13      -15.777649   1.000000
   14      -15.701054   1.000000
   15      -15.611475   1.000000
   16      -15.457603   1.000000
   17      -15.335167   1.000000
   18      -15.185758   1.000000
   19       -9.732425   1.000000
   20       -9.314987   1.000000
   21       -9.264742   1.000000
   22       -9.030665   1.000000
   23       -8.947155   1.000000
   24       -8.867316   1.000000
   25       -8.689950   1.000000
   26       -8.549407   1.000000
   27       -8.451123   1.000000
   28       -8.333518   1.000000
   29       -8.299911   1.000000
   30       -8.131825   1.000000
   31       -8.103345   1.000000
   32       -8.024805   1.000000
   33       -7.979543   1.000000
   34       -7.837778   1.000000
   35       -7.701481   1.000000
   36       -7.648447   1.000000
   37       -7.586685   1.000000
   38       -7.549654   1.000000
   39       -7.446676   1.000000
   40       -7.340418   1.000000
   41       -7.166399   1.000000
   42       -7.116306   1.000000
   43       -7.042130   1.000000
   44       -6.951529   1.000000
   45       -6.897644   1.000000
   46       -6.815700   1.000000
   47       -6.765932   1.000000
   48       -6.604820   1.000000
   49       -6.490743   1.000000
   50       -6.437902   1.000000
   51       -6.316025   1.000000
   52       -6.286468   1.000000
   53       -6.214647   1.000000
   54       -6.157937   1.000000
   55       -6.105655   1.000000
   56       -6.076121   1.000000
   57       -6.005399   1.000000
   58       -5.971362   1.000000
   59       -5.829662   1.000000
   60       -5.719096   1.000000
   61       -5.679985   1.000000
   62       -5.546662   1.000000
   63       -5.474794   1.000000
   64       -5.341906   1.000000
   65       -5.204504   1.000000
   66       -5.111225   1.000000
   67       -4.988445   1.000000
   68       -4.845755   1.000000
   69       -4.792461   1.000000
   70       -4.718091   1.000000
   71       -4.545547   1.000000
   72       -4.404746   1.000000
   73       -4.288380   1.000000
   74       -4.200356   1.000000
   75       -4.076074   1.000000
   76       -4.035856   1.000000
   77       -3.884555   0.999997
   78       -3.722233   0.999615
   79       -3.509414   0.968453
   80       -3.255317   0.524633
   81       -3.127356   0.199604
   82       -2.823954   0.001402
   83       -2.668541   0.000022
   84       -2.603409   0.000003
   85       -2.471642   0.000000
   86       -2.362189   0.000000
   87       -2.205701   0.000000
   88       -2.098510   0.000000
   89       -1.936963   0.000000
   90       -1.868646   0.000000
   91       -1.682994   0.000000
   92       -1.606357   0.000000
   93       -1.387521   0.000000
   94       -1.358107   0.000000
   95       -1.192642   0.000000
   96       -1.063007   0.000000
   97       -1.026884   0.000000
   98       -0.941469   0.000000
   99       -0.880800   0.000000
  100       -0.876102   0.000000
  101       -0.799315   0.000000
  102       -0.718887   0.000000
  103       -0.642404   0.000000
  104       -0.547509   0.000000
  105       -0.445373   0.000000
  106       -0.334955   0.000000
  107       -0.270694   0.000000
  108       -0.107999   0.000000
  109        0.044143   0.000000
  110        0.214463   0.000000
  111        0.270312   0.000000
  112        0.584577   0.000000
  113        0.750349   0.000000
  114        0.992438   0.000000
  115        1.127066   0.000000
  116        1.305642   0.000000
  117        1.522842   0.000000
  118        2.019778   0.000000
  119        2.178929   0.000000
  120        2.493526   0.000000
 
  0.5000000E+00  0.1110223E-15  0.0000000E+00  0.1562500E-01
    1      -17.505970   1.000000
    2      -17.349011   1.000000
    3      -16.742261   1.000000
    4      -16.716956   1.000000
    5      -16.584025   1.000000
    6      -16.553603   1.000000
    7      -16.276829   1.000000
    8      -16.198113   1.000000
    9      -16.117676   1.000000
   10      -16.081040   1.000000
   11      -15.877141   1.000000
   12      -15.837987   1.000000
   13      -15.770997   1.000000
   14      -15.696755   1.000000
   15      -15.639931   1.000000
   16      -15.431517   1.000000
   17      -15.339000   1.000000
   18      -15.204249   1.000000
   19       -9.814860   1.000000
   20       -9.352424   1.000000
   21       -9.302726   1.000000
   22       -9.007706   1.000000
   23       -8.936472   1.000000
   24       -8.832596   1.000000
   25       -8.680848   1.000000
   26       -8.661511   1.000000
   27       -8.440534   1.000000
   28       -8.291186   1.000000
   29       -8.226556   1.000000
   30       -8.131127   1.000000
   31       -8.080088   1.000000
   32       -8.011675   1.000000
   33       -7.918285   1.000000
   34       -7.844123   1.000000
   35       -7.750206   1.000000
   36       -7.682831   1.000000
   37       -7.641605   1.000000
   38       -7.599854   1.000000
   39       -7.469930   1.000000
   40       -7.335735   1.000000
   41       -7.093198   1.000000
   42       -7.074368   1.000000
   43       -6.996978   1.000000
   44       -6.857890   1.000000
   45       -6.825654   1.000000
   46       -6.711635   1.000000
   47       -6.650553   1.000000
   48       -6.589811   1.000000
   49       -6.523603   1.000000
   50       -6.458045   1.000000
   51       -6.413577   1.000000
   52       -6.342719   1.000000
   53       -6.268194   1.000000
   54       -6.185265   1.000000
   55       -6.109937   1.000000
   56       -6.096744   1.000000
   57       -6.011241   1.000000
   58       -5.845329   1.000000
   59       -5.813588   1.000000
   60       -5.787913   1.000000
   61       -5.629576   1.000000
   62       -5.594031   1.000000
   63       -5.530385   1.000000
   64       -5.405505   1.000000
   65       -5.219360   1.000000
   66       -5.067626   1.000000
   67       -4.995087   1.000000
   68       -4.953908   1.000000
   69       -4.831297   1.000000
   70       -4.631693   1.000000
   71       -4.584413   1.000000
   72       -4.451117   1.000000
   73       -4.329310   1.000000
   74       -4.172711   1.000000
   75       -4.028656   1.000000
   76       -4.014773   1.000000
   77       -3.859462   0.999993
   78       -3.692403   0.999190
   79       -3.474020   0.946110
   80       -3.337993   0.740988
   81       -2.983503   0.031427
   82       -2.954375   0.019405
   83       -2.653594   0.000014
   84       -2.608693   0.000003
   85       -2.459612   0.000000
   86       -2.328327   0.000000
   87       -2.187641   0.000000
   88       -2.100229   0.000000
   89       -1.924151   0.000000
   90       -1.844090   0.000000
   91       -1.658654   0.000000
   92       -1.568724   0.000000
   93       -1.383816   0.000000
   94       -1.360075   0.000000
   95       -1.194387   0.000000
   96       -1.088126   0.000000
   97       -1.073111   0.000000
   98       -0.998645   0.000000
   99       -0.928820   0.000000
  100       -0.892397   0.000000
  101       -0.822888   0.000000
  102       -0.710430   0.000000
  103       -0.629469   0.000000
  104       -0.603421   0.000000
  105       -0.481308   0.000000
  106       -0.406662   0.000000
  107       -0.298160   0.000000
  108       -0.120493   0.000000
  109        0.022925   0.000000
  110        0.195723   0.000000
  111        0.274704   0.000000
  112        0.586215   0.000000
  113        0.772129   0.000000
  114        1.046694   0.000000
  115        1.138262   0.000000
  116        1.325592   0.000000
  117        1.567019   0.000000
  118        2.251694   0.000000
  119        2.265971   0.000000
  120        2.405819   0.000000
 
  0.0000000E+00  0.1250000E+00  0.0000000E+00  0.3125000E-01
    1      -17.807507   1.000000
    2      -16.779266   1.000000
    3      -16.736541   1.000000
    4      -16.603118   1.000000
    5      -16.557688   1.000000
    6      -16.440711   1.000000
    7      -16.376973   1.000000
    8      -16.282867   1.000000
    9      -16.208267   1.000000
   10      -16.085937   1.000000
   11      -16.040274   1.000000
   12      -15.989407   1.000000
   13      -15.875360   1.000000
   14      -15.739572   1.000000
   15      -15.565970   1.000000
   16      -15.504692   1.000000
   17      -15.269190   1.000000
   18      -15.132060   1.000000
   19       -9.287555   1.000000
   20       -9.183216   1.000000
   21       -9.046065   1.000000
   22       -8.969068   1.000000
   23       -8.819995   1.000000
   24       -8.721047   1.000000
   25       -8.677337   1.000000
   26       -8.579347   1.000000
   27       -8.519086   1.000000
   28       -8.471826   1.000000
   29       -8.415315   1.000000
   30       -8.352568   1.000000
   31       -8.277999   1.000000
   32       -8.086928   1.000000
   33       -8.019653   1.000000
   34       -7.986440   1.000000
   35       -7.828423   1.000000
   36       -7.720118   1.000000
   37       -7.685112   1.000000
   38       -7.525432   1.000000
   39       -7.445527   1.000000
   40       -7.366585   1.000000
   41       -7.259001   1.000000
   42       -7.197255   1.000000
   43       -7.157654   1.000000
   44       -6.926345   1.000000
   45       -6.885280   1.000000
   46       -6.826863   1.000000
   47       -6.753766   1.000000
   48       -6.654109   1.000000
   49       -6.608904   1.000000
   50       -6.545447   1.000000
   51       -6.494828   1.000000
   52       -6.262745   1.000000
   53       -6.228993   1.000000
   54       -6.122875   1.000000
   55       -6.091472   1.000000
   56       -6.040481   1.000000
   57       -5.935681   1.000000
   58       -5.865850   1.000000
   59       -5.830721   1.000000
   60       -5.700336   1.000000
   61       -5.583912   1.000000
   62       -5.399791   1.000000
   63       -5.343938   1.000000
   64       -5.127151   1.000000
   65       -5.072699   1.000000
   66       -4.980770   1.000000
   67       -4.970646   1.000000
   68       -4.876421   1.000000
   69       -4.779387   1.000000
   70       -4.690067   1.000000
   71       -4.533960   1.000000
   72       -4.421534   1.000000
   73       -4.387133   1.000000
   74       -4.361044   1.000000
   75       -4.287876   1.000000
   76       -3.901129   0.999998
   77       -3.812523   0.999969
   78       -3.715548   0.999544
   79       -3.493559   0.959631
   80       -3.392931   0.849634
   81       -2.907229   0.008207
   82       -2.789165   0.000609
   83       -2.709363   0.000073
   84       -2.634039   0.000007
   85       -2.503996   0.000000
   86       -2.454278   0.000000
   87       -2.221768   0.000000
   88       -2.118865   0.000000
   89       -2.080569   0.000000
   90       -1.987261   0.000000
   91       -1.940894   0.000000
   92       -1.644303   0.000000
   93       -1.392241   0.000000
   94       -1.298965   0.000000
   95       -1.214621   0.000000
   96       -0.975160   0.000000
   97       -0.912634   0.000000
   98       -0.834638   0.000000
   99       -0.809118   0.000000
  100       -0.708179   0.000000
  101       -0.669184   0.000000
  102       -0.602389   0.000000
  103       -0.345248   0.000000
  104       -0.292283   0.000000
  105       -0.219370   0.000000
  106       -0.124318   0.000000
  107       -0.027188   0.000000
  108       -0.007322   0.000000
  109        0.103074   0.000000
  110        0.191085   0.000000
  111        0.257737   0.000000
  112        0.459294   0.000000
  113        0.618401   0.000000
  114        0.767549   0.000000
  115        1.057297   0.000000
  116        1.236519   0.000000
  117        1.316652   0.000000
  118        1.705939   0.000000
  119        1.889470   0.000000
  120        2.214934   0.000000
 
  0.1250000E+00  0.1250000E+00  0.0000000E+00  0.3125000E-01
    1      -17.756678   1.000000
    2      -16.915084   1.000000
    3      -16.744965   1.000000
    4      -16.700809   1.000000
    5      -16.532582   1.000000
    6      -16.418342   1.000000
    7      -16.385486   1.000000
    8      -16.242635   1.000000
    9      -16.158414   1.000000
   10      -16.111431   1.000000
   11      -16.071563   1.000000
   12      -15.865530   1.000000
   13      -15.821336   1.000000
   14      -15.732047   1.000000
   15      -15.559081   1.000000
   16      -15.501662   1.000000
   17      -15.303352   1.000000
   18      -15.153572   1.000000
   19       -9.341615   1.000000
   20       -9.317333   1.000000
   21       -9.170779   1.000000
   22       -9.049530   1.000000
   23       -8.919054   1.000000
   24       -8.751004   1.000000
   25       -8.579645   1.000000
   26       -8.566855   1.000000
   27       -8.528155   1.000000
   28       -8.456994   1.000000
   29       -8.409848   1.000000
   30       -8.279408   1.000000
   31       -8.219168   1.000000
   32       -8.058060   1.000000
   33       -7.994417   1.000000
   34       -7.894998   1.000000
   35       -7.658188   1.000000
   36       -7.641140   1.000000
   37       -7.598674   1.000000
   38       -7.513968   1.000000
   39       -7.387227   1.000000
   40       -7.333106   1.000000
   41       -7.282743   1.000000
   42       -7.199136   1.000000
   43       -7.121451   1.000000
   44       -7.067066   1.000000
   45       -6.982350   1.000000
   46       -6.863062   1.000000
   47       -6.752071   1.000000
   48       -6.676412   1.000000
   49       -6.598884   1.000000
   50       -6.475031   1.000000
   51       -6.434858   1.000000
   52       -6.292706   1.000000
   53       -6.260781   1.000000
   54       -6.178634   1.000000
   55       -6.149709   1.000000
   56       -5.955884   1.000000
   57       -5.876582   1.000000
   58       -5.802848   1.000000
   59       -5.723210   1.000000
   60       -5.688446   1.000000
   61       -5.536914   1.000000
   62       -5.497875   1.000000
   63       -5.304335   1.000000
   64       -5.270097   1.000000
   65       -5.229449   1.000000
   66       -5.185480   1.000000
   67       -5.007446   1.000000
   68       -4.892036   1.000000
   69       -4.787504   1.000000
   70       -4.697329   1.000000
   71       -4.467898   1.000000
   72       -4.352752   1.000000
   73       -4.297898   1.000000
   74       -4.228021   1.000000
   75       -4.151931   1.000000
   76       -3.977164   1.000000
   77       -3.894966   0.999998
   78       -3.678052   0.998860
   79       -3.577051   0.990275
   80       -3.416506   0.885235
   81       -2.981552   0.030464
   82       -2.810586   0.001025
   83       -2.724754   0.000112
   84       -2.570692   0.000001
   85       -2.515903   0.000000
   86       -2.445339   0.000000
   87       -2.268235   0.000000
   88       -2.111022   0.000000
   89       -2.010678   0.000000
   90       -1.943765   0.000000
   91       -1.789546   0.000000
   92       -1.658483   0.000000
   93       -1.395727   0.000000
   94       -1.321208   0.000000
   95       -1.180492   0.000000
   96       -1.004147   0.000000
   97       -0.906319   0.000000
   98       -0.864953   0.000000
   99       -0.775393   0.000000
  100       -0.755685   0.000000
  101       -0.731612   0.000000
  102       -0.666507   0.000000
  103       -0.471082   0.000000
  104       -0.416535   0.000000
  105       -0.309398   0.000000
  106       -0.246872   0.000000
  107       -0.137172   0.000000
  108       -0.027386   0.000000
  109       -0.001963   0.000000
  110        0.153543   0.000000
  111        0.373321   0.000000
  112        0.600800   0.000000
  113        0.628848   0.000000
  114        0.738486   0.000000
  115        1.134247   0.000000
  116        1.280860   0.000000
  117        1.443783   0.000000
  118        1.792520   0.000000
  119        1.963503   0.000000
  120        2.285929   0.000000
 
  0.2500000E+00  0.1250000E+00  0.0000000E+00  0.3125000E-01
    1      -17.658428   1.000000
    2      -17.100392   1.000000
    3      -16.866985   1.000000
    4      -16.660557   1.000000
    5      -16.548698   1.000000
    6      -16.439850   1.000000
    7      -16.316798   1.000000
    8      -16.190659   1.000000
    9      -16.163001   1.000000
   10      -16.097760   1.000000
   11      -16.045327   1.000000
   12      -15.821360   1.000000
   13      -15.767252   1.000000
   14      -15.706713   1.000000
   15      -15.565538   1.000000
   16      -15.473649   1.000000
   17      -15.336938   1.000000
   18      -15.184573   1.000000
   19       -9.610617   1.000000
   20       -9.427706   1.000000
   21       -9.245059   1.000000
   22       -9.051845   1.000000
   23       -8.876148   1.000000
   24       -8.793623   1.000000
   25       -8.635454   1.000000
   26       -8.506752   1.000000
   27       -8.451373   1.000000
   28       -8.366228   1.000000
   29       -8.340161   1.000000
   30       -8.224133   1.000000
   31       -8.137490   1.000000
   32       -8.077428   1.000000
   33       -8.016994   1.000000
   34       -7.934664   1.000000
   35       -7.804226   1.000000
   36       -7.519651   1.000000
   37       -7.486327   1.000000
   38       -7.443781   1.000000
   39       -7.376433   1.000000
   40       -7.309986   1.000000
   41       -7.255731   1.000000
   42       -7.156029   1.000000
   43       -7.123743   1.000000
   44       -6.991837   1.000000
   45       -6.880656   1.000000
   46       -6.838122   1.000000
   47       -6.787125   1.000000