 vasp.5.4.1 05Feb16 (build Jul 05 2020 17:13:04) complex                        
  
 executed on           IFC91_ompi date 2024.08.25  12:19:09
 running on   40 total cores
 distrk:  each k-point on   40 cores,    1 groups
 distr:  one band on NCORES_PER_BAND=   1 cores,   40 groups


--------------------------------------------------------------------------------------------------------


 INCAR:
 POTCAR:   PAW_PBE V 08Apr2002                    
 POTCAR:   PAW_PBE Mo 08Apr2002                   
 POTCAR:   PAW_PBE W 08Apr2002                    
 POTCAR:    PAW_PBE S 17Jan2003                   

 ----------------------------------------------------------------------------- 
|                                                                             |
|           W    W    AA    RRRRR   N    N  II  N    N   GGGG   !!!           |
|           W    W   A  A   R    R  NN   N  II  NN   N  G    G  !!!           |
|           W    W  A    A  R    R  N N  N  II  N N  N  G       !!!           |
|           W WW W  AAAAAA  RRRRR   N  N N  II  N  N N  G  GGG   !            |
|           WW  WW  A    A  R   R   N   NN  II  N   NN  G    G                |
|           W    W  A    A  R    R  N    N  II  N    N   GGGG   !!!           |
|                                                                             |
|      For optimal performance we recommend to set                            |
|        NCORE= 4 - approx SQRT( number of cores)                             |
|      NCORE specifies how many cores store one orbital (NPAR=cpu/NCORE).     |
|      This setting can  greatly improve the performance of VASP for DFT.     |
|      The default, NPAR=number of cores might be grossly inefficient         |
|      on modern multi-core architectures or massively parallel machines.     |
|      Do your own testing !!!!                                               |
|      Unfortunately you need to use the default for GW and RPA calculations. |
|      (for HF NCORE is supported but not extensively tested yet)             |
|                                                                             |
 ----------------------------------------------------------------------------- 

 POTCAR:   PAW_PBE V 08Apr2002                    
   VRHFIN =V: p6 d4 s1                                                          
   LEXCH  = PE                                                                  
   EATOM  =   170.8679 eV,   12.5584 Ry                                         
                                                                                
   TITEL  = PAW_PBE V 08Apr2002                                                 
   LULTRA =        F    use ultrasoft PP ?                                      
   IUNSCR =        1    unscreen: 0-lin 1-nonlin 2-no                           
   RPACOR =    2.000    partial core radius                                     
   POMASS =   50.941; ZVAL   =    5.000    mass and valenz                      
   RCORE  =    2.700    outmost cutoff radius                                   
   RWIGS  =    2.500; RWIGS  =    1.323    wigner-seitz radius (au A)           
   ENMAX  =  192.543; ENMIN  =  144.408 eV                                      
   RCLOC  =    1.779    cutoff for local pot                                    
   LCOR   =        T    correct aug charges                                     
   LPAW   =        T    paw PP                                                  
   EAUG   =  358.662                                                            
   DEXC   =    -.034                                                            
   RMAX   =    3.323    core radius for proj-oper                               
   RAUG   =    1.300    factor for augmentation sphere                          
   RDEP   =    2.762    radius for radial grids                                 
   QCUT   =   -3.762; QGAM   =    7.524    optimization parameters              
                                                                                
   Description                                                                  
     l     E      TYP  RCUT    TYP  RCUT                                        
     2   .000     23  2.700                                                     
     2   .000     23  2.700                                                     
     0   .000     23  2.700                                                     
     0  2.000     23  2.700                                                     
     1   .000     23  2.700                                                     
     1  2.000     23  2.700                                                     
     3   .000      7   .000                                                     
  local pseudopotential read in
  partial core-charges read in
  atomic valenz-charges read in
  non local Contribution for L=           2  read in
    real space projection operators read in
  non local Contribution for L=           2  read in
    real space projection operators read in
  non local Contribution for L=           0  read in
    real space projection operators read in
  non local Contribution for L=           0  read in
    real space projection operators read in
  non local Contribution for L=           1  read in
    real space projection operators read in
  non local Contribution for L=           1  read in
    real space projection operators read in
    PAW grid and wavefunctions read in
 
   number of l-projection  operators is LMAX  =           6
   number of lm-projection operators is LMMAX =          18
 
 POTCAR:   PAW_PBE Mo 08Apr2002                   
   VRHFIN =Mo: 4p5s4d                                                           
   LEXCH  = PE                                                                  
   EATOM  =   217.5180 eV,   15.9871 Ry                                         
                                                                                
   TITEL  = PAW_PBE Mo 08Apr2002                                                
   LULTRA =        F    use ultrasoft PP ?                                      
   IUNSCR =        1    unscreen: 0-lin 1-nonlin 2-no                           
   RPACOR =    2.200    partial core radius                                     
   POMASS =   95.940; ZVAL   =    6.000    mass and valenz                      
   RCORE  =    2.750    outmost cutoff radius                                   
   RWIGS  =    2.750; RWIGS  =    1.455    wigner-seitz radius (au A)           
   ENMAX  =  224.584; ENMIN  =  168.438 eV                                      
   RCLOC  =    2.111    cutoff for local pot                                    
   LCOR   =        T    correct aug charges                                     
   LPAW   =        T    paw PP                                                  
   EAUG   =  345.278                                                            
   DEXC   =    -.088                                                            
   RMAX   =    3.077    core radius for proj-oper                               
   RAUG   =    1.300    factor for augmentation sphere                          
   RDEP   =    2.815    radius for radial grids                                 
   QCUT   =   -4.063; QGAM   =    8.126    optimization parameters              
                                                                                
   Description                                                                  
     l     E      TYP  RCUT    TYP  RCUT                                        
     2   .000     23  2.500                                                     
     2   .000     23  2.500                                                     
     0   .000     23  2.600                                                     
     0  1.000     23  2.600                                                     
     1   .400     23  2.750                                                     
     1  2.000     23  2.750                                                     
     3   .000      7   .000                                                     
  local pseudopotential read in
  partial core-charges read in
  atomic valenz-charges read in
  non local Contribution for L=           2  read in
    real space projection operators read in
  non local Contribution for L=           2  read in
    real space projection operators read in
  non local Contribution for L=           0  read in
    real space projection operators read in
  non local Contribution for L=           0  read in
    real space projection operators read in
  non local Contribution for L=           1  read in
    real space projection operators read in
  non local Contribution for L=           1  read in
    real space projection operators read in
    PAW grid and wavefunctions read in
 
   number of l-projection  operators is LMAX  =           6
   number of lm-projection operators is LMMAX =          18
 
 POTCAR:   PAW_PBE W 08Apr2002                    
   VRHFIN =W : 6s5d                                                             
   LEXCH  = PE                                                                  
   EATOM  =   204.6100 eV,   15.0384 Ry                                         
                                                                                
   TITEL  = PAW_PBE W 08Apr2002                                                 
   LULTRA =        F    use ultrasoft PP ?                                      
   IUNSCR =        1    unscreen: 0-lin 1-nonlin 2-no                           
   RPACOR =    2.330    partial core radius                                     
   POMASS =  183.850; ZVAL   =    6.000    mass and valenz                      
   RCORE  =    2.750    outmost cutoff radius                                   
   RWIGS  =    2.750; RWIGS  =    1.455    wigner-seitz radius (au A)           
   ENMAX  =  223.057; ENMIN  =  167.293 eV                                      
   RCLOC  =    2.147    cutoff for local pot                                    
   LCOR   =        T    correct aug charges                                     
   LPAW   =        T    paw PP                                                  
   EAUG   =  373.438                                                            
   DEXC   =    -.060                                                            
   RMAX   =    3.087    core radius for proj-oper                               
   RAUG   =    1.300    factor for augmentation sphere                          
   RDEP   =    2.886    radius for radial grids                                 
   QCUT   =   -4.049; QGAM   =    8.098    optimization parameters              
                                                                                
   Description                                                                  
     l     E      TYP  RCUT    TYP  RCUT                                        
     2   .000     23  2.500                                                     
     2   .000     23  2.500                                                     
     0   .000     23  2.500                                                     
     0   .000     23  2.500                                                     
     1   .200     23  2.750                                                     
     1  2.000     23  2.750                                                     
     3   .000      7   .000                                                     
  local pseudopotential read in
  partial core-charges read in
  atomic valenz-charges read in
  non local Contribution for L=           2  read in
    real space projection operators read in
  non local Contribution for L=           2  read in
    real space projection operators read in
  non local Contribution for L=           0  read in
    real space projection operators read in
  non local Contribution for L=           0  read in
    real space projection operators read in
  non local Contribution for L=           1  read in
    real space projection operators read in
  non local Contribution for L=           1  read in
    real space projection operators read in
    PAW grid and wavefunctions read in
 
   number of l-projection  operators is LMAX  =           6
   number of lm-projection operators is LMMAX =          18
 
 POTCAR:    PAW_PBE S 17Jan2003                   
   VRHFIN =S : s2p4                                                             
   LEXCH  = PE                                                                  
   EATOM  =   276.8230 eV,   20.3459 Ry                                         
                                                                                
   TITEL  = PAW_PBE S 17Jan2003                                                 
   LULTRA =        F    use ultrasoft PP ?                                      
   IUNSCR =        1    unscreen: 0-lin 1-nonlin 2-no                           
   RPACOR =    1.500    partial core radius                                     
   POMASS =   32.066; ZVAL   =    6.000    mass and valenz                      
   RCORE  =    1.900    outmost cutoff radius                                   
   RWIGS  =    2.200; RWIGS  =    1.164    wigner-seitz radius (au A)           
   ENMAX  =  280.000; ENMIN  =  194.016 eV                                      
   ICORE  =        2    local potential                                         
   LCOR   =        T    correct aug charges                                     
   LPAW   =        T    paw PP                                                  
   EAUG   =  335.092                                                            
   DEXC   =     .000                                                            
   RMAX   =    2.867    core radius for proj-oper                               
   RAUG   =    1.300    factor for augmentation sphere                          
   RDEP   =    1.954    radius for radial grids                                 
   QCUT   =   -4.360; QGAM   =    8.721    optimization parameters              
                                                                                
   Description                                                                  
     l     E      TYP  RCUT    TYP  RCUT                                        
     0   .000     23  1.900                                                     
     0   .000     23  1.900                                                     
     1   .000     23  1.900                                                     
     1   .000     23  1.900                                                     
     2   .000     23  1.900                                                     
  local pseudopotential read in
  partial core-charges read in
  atomic valenz-charges read in
  non local Contribution for L=           0  read in
    real space projection operators read in
  non local Contribution for L=           0  read in
    real space projection operators read in
  non local Contribution for L=           1  read in
    real space projection operators read in
  non local Contribution for L=           1  read in
    real space projection operators read in
    PAW grid and wavefunctions read in
 
   number of l-projection  operators is LMAX  =           4
   number of lm-projection operators is LMMAX =           8
 

 ----------------------------------------------------------------------------- 
|                                                                             |
|  ADVICE TO THIS USER RUNNING 'VASP/VAMP'   (HEAR YOUR MASTER'S VOICE ...):  |
|                                                                             |
|      You have a (more or less) 'large supercell' and for larger cells       |
|      it might be more efficient to use real space projection operators      |
|      So try LREAL= Auto  in the INCAR   file.                               |
|      Mind: If you want to do a very accurate calculations keep the          |
|      reciprocal projection scheme          (i.e. LREAL=.FALSE.)             |
|                                                                             |
 ----------------------------------------------------------------------------- 

 PAW_PBE V 08Apr2002                    :
 energy of atom  1       EATOM= -170.8679
 kinetic energy error for atom=    0.0047 (will be added to EATOM!!)
 PAW_PBE Mo 08Apr2002                   :
 energy of atom  2       EATOM= -217.5180
 kinetic energy error for atom=    0.0215 (will be added to EATOM!!)
 PAW_PBE W 08Apr2002                    :
 energy of atom  3       EATOM= -204.6100
 kinetic energy error for atom=    0.0205 (will be added to EATOM!!)
  PAW_PBE S 17Jan2003                   :
 energy of atom  4       EATOM= -276.8230
 kinetic energy error for atom=    0.0122 (will be added to EATOM!!)
 
 
 POSCAR: crystal structure from VMoWS2 with Hexag
  positions in cartesian coordinates
  No initial velocities read in
 exchange correlation table for  LEXCH =        8
   RHO(1)=    0.500       N(1)  =     2000
   RHO(2)=  100.500       N(2)  =     4000
 


--------------------------------------------------------------------------------------------------------


 ion  position               nearest neighbor table
   1  0.333  0.333  0.000-  13 2.34  16 2.34  19 2.36  18 2.36  11 2.36  10 2.36
   2  0.667  0.333  0.000-  19 2.34  22 2.34  25 2.36  24 2.36  17 2.36  16 2.36
   3  0.667  0.667  0.000-  21 2.34  24 2.34  27 2.36  26 2.36  19 2.36  18 2.36
   4  0.000  0.000  0.000-  23 2.34  14 2.34  11 2.36  10 2.36  27 2.36  26 2.36   9 3.34   6 3.34
                             5 3.34   7 3.34
   5  1.000  0.333  0.000-  25 2.34  10 2.34  13 2.36  12 2.36  22 2.36  23 2.36   6 3.34   4 3.34
                             9 3.36   8 3.36
   6  0.000  0.667  0.000-  27 2.34  12 2.34  14 2.36  15 2.36  24 2.36  25 2.36   4 3.34   5 3.34
                             8 3.34   7 3.36
   7  0.333  0.000  0.000-  11 2.34  20 2.34  17 2.36  16 2.36  15 2.36  14 2.36   8 3.34   9 3.34
                             4 3.34   6 3.36
   8  0.333  0.667  0.000-  15 2.34  18 2.34  20 2.36  21 2.36  13 2.36  12 2.36   7 3.34   6 3.34
                             9 3.36   5 3.36
   9  0.667  0.000  0.000-  17 2.34  26 2.34  23 2.36  22 2.36  21 2.36  20 2.36   4 3.34   7 3.34
                             5 3.36   8 3.36
  10  0.111  0.222  0.955-   5 2.34   4 2.36   1 2.36
  11  0.222  0.111  0.045-   7 2.34   4 2.36   1 2.36
  12  0.111  0.556  0.955-   6 2.34   5 2.36   8 2.36
  13  0.222  0.444  0.045-   1 2.34   5 2.36   8 2.36
  14  0.111  0.889  0.955-   4 2.34   6 2.36   7 2.36
  15  0.222  0.777  0.045-   8 2.34   6 2.36   7 2.36
  16  0.444  0.222  0.955-   1 2.34   7 2.36   2 2.36
  17  0.556  0.111  0.045-   9 2.34   7 2.36   2 2.36
  18  0.444  0.556  0.955-   8 2.34   1 2.36   3 2.36
  19  0.556  0.444  0.045-   2 2.34   1 2.36   3 2.36
  20  0.444  0.889  0.955-   7 2.34   8 2.36   9 2.36
  21  0.556  0.777  0.045-   3 2.34   8 2.36   9 2.36
  22  0.777  0.222  0.955-   2 2.34   9 2.36   5 2.36
  23  0.889  0.111  0.045-   4 2.34   9 2.36   5 2.36
  24  0.777  0.556  0.955-   3 2.34   2 2.36   6 2.36
  25  0.889  0.444  0.045-   5 2.34   2 2.36   6 2.36
  26  0.777  0.889  0.955-   9 2.34   3 2.36   4 2.36
  27  0.889  0.777  0.045-   6 2.34   3 2.36   4 2.36
 

IMPORTANT INFORMATION: All symmetrisations will be switched off!
NOSYMM: (Re-)initialisation of all symmetry stuff for point group C_1.

 
 
 KPOINTS: K-POINTS 	#supercell of CrS2 in hexagona

Automatic generation of k-mesh.
Space group operators:
 irot       det(A)        alpha          n_x          n_y          n_z        tau_x        tau_y        tau_z
    1     1.000000     0.000000     1.000000     0.000000     0.000000     0.000000     0.000000     0.000000
 
 Subroutine IBZKPT returns following result:
 ===========================================
 
 Found     34 irreducible k-points:
 
 Following reciprocal coordinates:
            Coordinates               Weight
  0.000000  0.000000  0.000000      1.000000
  0.125000  0.000000  0.000000      2.000000
  0.250000  0.000000  0.000000      2.000000
  0.375000  0.000000  0.000000      2.000000
  0.500000  0.000000  0.000000      1.000000
  0.000000  0.125000  0.000000      2.000000
  0.125000  0.125000  0.000000      2.000000
  0.250000  0.125000  0.000000      2.000000
  0.375000  0.125000  0.000000      2.000000
  0.500000  0.125000  0.000000      2.000000
 -0.375000  0.125000  0.000000      2.000000
 -0.250000  0.125000  0.000000      2.000000
 -0.125000  0.125000  0.000000      2.000000
  0.000000  0.250000  0.000000      2.000000
  0.125000  0.250000  0.000000      2.000000
  0.250000  0.250000  0.000000      2.000000
  0.375000  0.250000  0.000000      2.000000
  0.500000  0.250000  0.000000      2.000000
 -0.375000  0.250000  0.000000      2.000000
 -0.250000  0.250000  0.000000      2.000000
 -0.125000  0.250000  0.000000      2.000000
 -0.000000  0.375000  0.000000      2.000000
  0.125000  0.375000  0.000000      2.000000
  0.250000  0.375000  0.000000      2.000000
  0.375000  0.375000  0.000000      2.000000
  0.500000  0.375000  0.000000      2.000000
 -0.375000  0.375000  0.000000      2.000000
 -0.250000  0.375000  0.000000      2.000000
 -0.125000  0.375000  0.000000      2.000000
  0.000000  0.500000  0.000000      1.000000
  0.125000  0.500000  0.000000      2.000000
  0.250000  0.500000  0.000000      2.000000
  0.375000  0.500000  0.000000      2.000000
  0.500000  0.500000  0.000000      1.000000
 
 Following cartesian coordinates:
            Coordinates               Weight
  0.000000  0.000000  0.000000      1.000000
  0.007209  0.012401  0.000000      2.000000
  0.014418  0.024802  0.000000      2.000000
  0.021626  0.037202  0.000000      2.000000
  0.028835  0.049603  0.000000      1.000000
 -0.007209  0.012401  0.000000      2.000000
  0.000000  0.024802  0.000000      2.000000
  0.007209  0.037202  0.000000      2.000000
  0.014418  0.049603  0.000000      2.000000
  0.021626  0.062004  0.000000      2.000000
 -0.028835 -0.024802  0.000000      2.000000
 -0.021626 -0.012401  0.000000      2.000000
 -0.014418  0.000000  0.000000      2.000000
 -0.014418  0.024802  0.000000      2.000000
 -0.007209  0.037202  0.000000      2.000000
  0.000000  0.049603  0.000000      2.000000
  0.007209  0.062004  0.000000      2.000000
  0.014418  0.074405  0.000000      2.000000
 -0.036044 -0.012401  0.000000      2.000000
 -0.028835  0.000000  0.000000      2.000000
 -0.021626  0.012401  0.000000      2.000000
 -0.021626  0.037202  0.000000      2.000000
 -0.014418  0.049603  0.000000      2.000000
 -0.007209  0.062004  0.000000      2.000000
  0.000000  0.074405  0.000000      2.000000
  0.007209  0.086806  0.000000      2.000000
 -0.043253  0.000000  0.000000      2.000000
 -0.036044  0.012401  0.000000      2.000000
 -0.028835  0.024802  0.000000      2.000000
 -0.028835  0.049603  0.000000      1.000000
 -0.021626  0.062004  0.000000      2.000000
 -0.014418  0.074405  0.000000      2.000000
 -0.007209  0.086806  0.000000      2.000000
  0.000000  0.099206  0.000000      1.000000
 


--------------------------------------------------------------------------------------------------------




 Dimension of arrays:
   k-points           NKPTS =     34   k-points in BZ     NKDIM =     34   number of bands    NBANDS=    120
   number of dos      NEDOS =    301   number of ions     NIONS =     27
   non local maximal  LDIM  =      6   non local SUM 2l+1 LMDIM =     18
   total plane-waves  NPLWV = 222264
   max r-space proj   IRMAX =      1   max aug-charges    IRDMAX=   5642
   dimension x,y,z NGX =    42 NGY =   42 NGZ =  126
   dimension x,y,z NGXF=    84 NGYF=   84 NGZF=  252
   support grid    NGXF=    84 NGYF=   84 NGZF=  252
   ions per type =               3   3   3  18
 NGX,Y,Z   is equivalent  to a cutoff of   6.96,  6.96,  6.98 a.u.
 NGXF,Y,Z  is equivalent  to a cutoff of  13.92, 13.92, 13.96 a.u.


 I would recommend the setting:
   dimension x,y,z NGX =    41 NGY =   41 NGZ =  123
 SYSTEM =  unknown system                          
 POSCAR =  crystal structure from VMoWS2 with Hexag

 Startparameter for this run:
   NWRITE =      2    write-flag & timer
   PREC   = normal    normal or accurate (medium, high low for compatibility)
   ISTART =      0    job   : 0-new  1-cont  2-samecut
   ICHARG =      2    charge: 1-file 2-atom 10-const
   ISPIN  =      1    spin polarized calculation?
   LNONCOLLINEAR =      F non collinear calculations
   LSORBIT =      F    spin-orbit coupling
   INIWAV =      1    electr: 0-lowe 1-rand  2-diag
   LASPH  =      F    aspherical Exc in radial PAW
   METAGGA=      F    non-selfconsistent MetaGGA calc.

 Electronic Relaxation 1
   ENCUT  =  280.0 eV  20.58 Ry    4.54 a.u.  13.68 13.68 40.93*2*pi/ulx,y,z
   ENINI  =  280.0     initial cutoff
   ENAUG  =  373.4 eV  augmentation charge cutoff
   NELM   =     60;   NELMIN=  2; NELMDL= -5     # of ELM steps 
   EDIFF  = 0.1E-03   stopping-criterion for ELM
   LREAL  =      F    real-space projection
   NLSPLINE    = F    spline interpolate recip. space projectors
   LCOMPAT=      F    compatible to vasp.4.4
   GGA_COMPAT  = T    GGA compatible to vasp.4.4-vasp.4.6
   LMAXPAW     = -100 max onsite density
   LMAXMIX     =    2 max onsite mixed and CHGCAR
   VOSKOWN=      0    Vosko Wilk Nusair interpolation
   ROPT   =    0.00000   0.00000   0.00000   0.00000
 Ionic relaxation
   EDIFFG = 0.1E-02   stopping-criterion for IOM
   NSW    =    100    number of steps for IOM
   NBLOCK =      1;   KBLOCK =    100    inner block; outer block 
   IBRION =      1    ionic relax: 0-MD 1-quasi-New 2-CG
   NFREE  =      0    steps in history (QN), initial steepest desc. (CG)
   ISIF   =      3    stress and relaxation
   IWAVPR =     11    prediction:  0-non 1-charg 2-wave 3-comb
   ISYM   =      0    0-nonsym 1-usesym 2-fastsym
   LCORR  =      T    Harris-Foulkes like correction to forces

   POTIM  = 0.5000    time-step for ionic-motion
   TEIN   =    0.0    initial temperature
   TEBEG  =    0.0;   TEEND  =   0.0 temperature during run
   SMASS  =  -3.00    Nose mass-parameter (am)
   estimated Nose-frequenzy (Omega)   =  0.10E-29 period in steps =****** mass=  -0.230E-26a.u.
   SCALEE = 1.0000    scale energy and forces
   NPACO  =    256;   APACO  = 16.0  distance and # of slots for P.C.
   PSTRESS=    0.0 pullay stress

  Mass of Ions in am
   POMASS =  50.94 95.94183.85 32.07
  Ionic Valenz
   ZVAL   =   5.00  6.00  6.00  6.00
  Atomic Wigner-Seitz radii
   RWIGS  =  -1.00 -1.00 -1.00 -1.00
  virtual crystal weights 
   VCA    =   1.00  1.00  1.00  1.00
   NELECT =     159.0000    total number of electrons
   NUPDOWN=      -1.0000    fix difference up-down

 DOS related values:
   EMIN   =  10.00;   EMAX   =-10.00  energy-range for DOS
   EFERMI =   0.00
   ISMEAR =     0;   SIGMA  =   0.20  broadening in eV -4-tet -1-fermi 0-gaus

 Electronic relaxation 2 (details)
   IALGO  =     38    algorithm
   LDIAG  =      T    sub-space diagonalisation (order eigenvalues)
   LSUBROT=      F    optimize rotation matrix (better conditioning)
   TURBO    =      0    0=normal 1=particle mesh
   IRESTART =      0    0=no restart 2=restart with 2 vectors
   NREBOOT  =      0    no. of reboots
   NMIN     =      0    reboot dimension
   EREF     =   0.00    reference energy to select bands
   IMIX   =      4    mixing-type and parameters
     AMIX     =   0.40;   BMIX     =  1.00
     AMIX_MAG =   1.60;   BMIX_MAG =  1.00
     AMIN     =   0.10
     WC   =   100.;   INIMIX=   1;  MIXPRE=   1;  MAXMIX= -45

 Intra band minimization:
   WEIMIN = 0.0010     energy-eigenvalue tresh-hold
   EBREAK =  0.21E-06  absolut break condition
   DEPER  =   0.30     relativ break condition  

   TIME   =   0.40     timestep for ELM

  volume/ion in A,a.u.               =      97.10       655.29
  Fermi-wavevector in a.u.,A,eV,Ry     =   0.643191  1.215456  5.628665  0.413695
  Thomas-Fermi vector in A             =   1.710110
 
 Write flags
   LWAVE  =      F    write WAVECAR
   LCHARG =      F    write CHGCAR
   LVTOT  =      F    write LOCPOT, total local potential
   LVHAR  =      F    write LOCPOT, Hartree potential only
   LELF   =      F    write electronic localiz. function (ELF)
   LORBIT =      0    0 simple, 1 ext, 2 COOP (PROOUT)


 Dipole corrections
   LMONO  =      F    monopole corrections only (constant potential shift)
   LDIPOL =      F    correct potential (dipole corrections)
   IDIPOL =      0    1-x, 2-y, 3-z, 4-all directions 
   EPSILON=  1.0000000 bulk dielectric constant

 Exchange correlation treatment:
   GGA     =    --    GGA type
   LEXCH   =     8    internal setting for exchange type
   VOSKOWN=      0    Vosko Wilk Nusair interpolation
   LHFCALC =     F    Hartree Fock is set to
   LHFONE  =     F    Hartree Fock one center treatment
   AEXX    =    0.0000 exact exchange contribution

 Linear response parameters
   LEPSILON=     F    determine dielectric tensor
   LRPA    =     F    only Hartree local field effects (RPA)
   LNABLA  =     F    use nabla operator in PAW spheres
   LVEL    =     F    velocity operator in full k-point grid
   LINTERFAST=   F  fast interpolation
   KINTER  =     0    interpolate to denser k-point grid
   CSHIFT  =0.1000    complex shift for real part using Kramers Kronig
   OMEGAMAX=  -1.0    maximum frequency
   DEG_THRESHOLD= 0.2000000E-02 threshold for treating states as degnerate
   RTIME   =    0.100 relaxation time in fs

 Orbital magnetization related:
   ORBITALMAG=     F  switch on orbital magnetization
   LCHIMAG   =     F  perturbation theory with respect to B field
   DQ        =  0.001000  dq finite difference perturbation B field



--------------------------------------------------------------------------------------------------------


 quasi-Newton-method for relaxation of ions
 charge density and potential will be updated during run
 non-spin polarized calculation
 Variant of blocked Davidson
 Davidson routine will perform the subspace rotation
 perform sub-space diagonalisation
    after iterative eigenvector-optimisation
 modified Broyden-mixing scheme, WC =      100.0
 initial mixing is a Kerker type mixing with AMIX =  0.4000 and BMIX =      1.0000
 Hartree-type preconditioning will be used
 using additional bands           40
 reciprocal scheme for non local part
 use partial core corrections
 calculate Harris-corrections to forces 
   (improved forces if not selfconsistent)
 use gradient corrections 
 use of overlap-Matrix (Vanderbilt PP)
 Gauss-broadening in eV      SIGMA  =   0.20


--------------------------------------------------------------------------------------------------------


  energy-cutoff  :      280.00
  volume of cell :     2621.81
      direct lattice vectors                 reciprocal lattice vectors
     8.669999960  5.039999894  0.000000000     0.057670129  0.099206348  0.000000000
    -8.669999821  5.040000133  0.000000000    -0.057670126  0.099206350  0.000000000
     0.000000000  0.000000000 30.000000000     0.000000000  0.000000000  0.033333333

  length of vectors
    10.028484344 10.028484344 30.000000000     0.114750788  0.114750788  0.033333333


 
 k-points in units of 2pi/SCALE and weight: K-POINTS 	#supercell of CrS2 in hexagona
   0.00000000  0.00000000  0.00000000       0.016
   0.00720877  0.01240079  0.00000000       0.031
   0.01441753  0.02480159  0.00000000       0.031
   0.02162630  0.03720238  0.00000000       0.031
   0.02883506  0.04960317  0.00000000       0.016
  -0.00720877  0.01240079  0.00000000       0.031
   0.00000000  0.02480159  0.00000000       0.031
   0.00720877  0.03720238  0.00000000       0.031
   0.01441753  0.04960317  0.00000000       0.031
   0.02162630  0.06200397  0.00000000       0.031
  -0.02883506 -0.02480159  0.00000000       0.031
  -0.02162630 -0.01240079  0.00000000       0.031
  -0.01441753  0.00000000  0.00000000       0.031
  -0.01441753  0.02480159  0.00000000       0.031
  -0.00720877  0.03720238  0.00000000       0.031
   0.00000000  0.04960317  0.00000000       0.031
   0.00720877  0.06200397  0.00000000       0.031
   0.01441753  0.07440476  0.00000000       0.031
  -0.03604383 -0.01240079  0.00000000       0.031
  -0.02883506  0.00000000  0.00000000       0.031
  -0.02162630  0.01240079  0.00000000       0.031
  -0.02162630  0.03720238  0.00000000       0.031
  -0.01441753  0.04960317  0.00000000       0.031
  -0.00720877  0.06200397  0.00000000       0.031
   0.00000000  0.07440476  0.00000000       0.031
   0.00720877  0.08680556  0.00000000       0.031
  -0.04325260  0.00000000  0.00000000       0.031
  -0.03604383  0.01240079  0.00000000       0.031
  -0.02883506  0.02480159  0.00000000       0.031
  -0.02883506  0.04960317  0.00000000       0.016
  -0.02162630  0.06200397  0.00000000       0.031
  -0.01441753  0.07440476  0.00000000       0.031
  -0.00720876  0.08680556  0.00000000       0.031
   0.00000000  0.09920635  0.00000000       0.016
 
 k-points in reciprocal lattice and weights: K-POINTS 	#supercell of CrS2 in hexagona
   0.00000000  0.00000000  0.00000000       0.016
   0.12500000  0.00000000  0.00000000       0.031
   0.25000000  0.00000000  0.00000000       0.031
   0.37500000  0.00000000  0.00000000       0.031
   0.50000000  0.00000000  0.00000000       0.016
   0.00000000  0.12500000  0.00000000       0.031
   0.12500000  0.12500000  0.00000000       0.031
   0.25000000  0.12500000  0.00000000       0.031
   0.37500000  0.12500000  0.00000000       0.031
   0.50000000  0.12500000  0.00000000       0.031
  -0.37500000  0.12500000  0.00000000       0.031
  -0.25000000  0.12500000  0.00000000       0.031
  -0.12500000  0.12500000  0.00000000       0.031
   0.00000000  0.25000000  0.00000000       0.031
   0.12500000  0.25000000  0.00000000       0.031
   0.25000000  0.25000000  0.00000000       0.031
   0.37500000  0.25000000  0.00000000       0.031
   0.50000000  0.25000000  0.00000000       0.031
  -0.37500000  0.25000000  0.00000000       0.031
  -0.25000000  0.25000000  0.00000000       0.031
  -0.12500000  0.25000000  0.00000000       0.031
  -0.00000000  0.37500000  0.00000000       0.031
   0.12500000  0.37500000  0.00000000       0.031
   0.25000000  0.37500000  0.00000000       0.031
   0.37500000  0.37500000  0.00000000       0.031
   0.50000000  0.37500000  0.00000000       0.031
  -0.37500000  0.37500000  0.00000000       0.031
  -0.25000000  0.37500000  0.00000000       0.031
  -0.12500000  0.37500000  0.00000000       0.031
   0.00000000  0.50000000  0.00000000       0.016
   0.12500000  0.50000000  0.00000000       0.031
   0.25000000  0.50000000  0.00000000       0.031
   0.37500000  0.50000000  0.00000000       0.031
   0.50000000  0.50000000  0.00000000       0.016
 
 position of ions in fractional coordinates (direct lattice) 
   0.33333334  0.33333334  0.00000000
   0.66666669  0.33333334  0.00000000
   0.66666669  0.66666669  0.00000000
   0.00000000  0.00000000  0.00000000
   1.00000000  0.33333334  0.00000000
   0.00000000  0.66666669  0.00000000
   0.33333334  0.00000000  0.00000000
   0.33333334  0.66666669  0.00000000
   0.66666669  0.00000000  0.00000000
   0.11068511  0.22244981  0.95539999
   0.22244981  0.11068511  0.04460000
   0.11068511  0.55578315  0.95539999
   0.22244981  0.44401845  0.04460000
   0.11068511  0.88911647  0.95539999
   0.22244981  0.77735180  0.04460000
   0.44401845  0.22244981  0.95539999
   0.55578315  0.11068511  0.04460000
   0.44401845  0.55578315  0.95539999
   0.55578315  0.44401845  0.04460000
   0.44401845  0.88911647  0.95539999
   0.55578315  0.77735180  0.04460000
   0.77735180  0.22244981  0.95539999
   0.88911647  0.11068511  0.04460000
   0.77735180  0.55578315  0.95539999
   0.88911647  0.44401845  0.04460000
   0.77735180  0.88911647  0.95539999
   0.88911647  0.77735180  0.04460000
 
 position of ions in cartesian coordinates  (Angst):
   0.00000005  3.36000011  0.00000000
   2.89000012  5.04000012  0.00000000
   0.00000009  6.72000022  0.00000000
   0.00000000  0.00000000  0.00000000
   5.77999993  6.71999999  0.00000000
  -5.78000005  3.36000019  0.00000000
   2.89000007  1.68000002  0.00000000
  -2.88999998  5.04000020  0.00000000
   5.78000015  3.36000003  0.00000000
  -0.96899991  1.67900001 28.66199970
   0.96899995  1.67899998  1.33799996
  -3.85899993  3.35900011 28.66199970
  -1.92100007  3.35900008  1.33799996
  -6.74899970  5.03900005 28.66199970
  -4.81100010  5.03900017  1.33799996
   1.92100017  3.35900003 28.66199970
   3.85900003  3.35900000  1.33799996
  -0.96899986  5.03900012 28.66199970
   0.96900000  5.03900009  1.33799996
  -3.85899963  6.71900006 28.66199970
  -1.92100003  6.71900019  1.33799996
   4.81100024  5.03900004 28.66199970
   6.74899984  5.03899987  1.33799996
   1.92100021  6.71900014 28.66199970
   3.85899981  6.71899996  1.33799996
  -0.96899956  8.39900008 28.66199970
   0.96899979  8.39900005  1.33799996
 


--------------------------------------------------------------------------------------------------------


 k-point  1 :   0.0000 0.0000 0.0000  plane waves:   27959
 k-point  2 :   0.1250 0.0000 0.0000  plane waves:   27889
 k-point  3 :   0.2500 0.0000 0.0000  plane waves:   27875
 k-point  4 :   0.3750 0.0000 0.0000  plane waves:   27893
 k-point  5 :   0.5000 0.0000 0.0000  plane waves:   27932
 k-point  6 :   0.0000 0.1250 0.0000  plane waves:   27889
 k-point  7 :   0.1250 0.1250 0.0000  plane waves:   27906
 k-point  8 :   0.2500 0.1250 0.0000  plane waves:   27898
 k-point  9 :   0.3750 0.1250 0.0000  plane waves:   27888
 k-point 10 :   0.5000 0.1250 0.0000  plane waves:   27873
 k-point 11 :  -0.3750 0.1250 0.0000  plane waves:   27874
 k-point 12 :  -0.2500 0.1250 0.0000  plane waves:   27895
 k-point 13 :  -0.1250 0.1250 0.0000  plane waves:   27879
 k-point 14 :   0.0000 0.2500 0.0000  plane waves:   27875
 k-point 15 :   0.1250 0.2500 0.0000  plane waves:   27898
 k-point 16 :   0.2500 0.2500 0.0000  plane waves:   27920
 k-point 17 :   0.3750 0.2500 0.0000  plane waves:   27901
 k-point 18 :   0.5000 0.2500 0.0000  plane waves:   27875
 k-point 19 :  -0.3750 0.2500 0.0000  plane waves:   27894
 k-point 20 :  -0.2500 0.2500 0.0000  plane waves:   27870
 k-point 21 :  -0.1250 0.2500 0.0000  plane waves:   27895
 k-point 22 :  -0.0000 0.3750 0.0000  plane waves:   27893
 k-point 23 :   0.1250 0.3750 0.0000  plane waves:   27888
 k-point 24 :   0.2500 0.3750 0.0000  plane waves:   27901
 k-point 25 :   0.3750 0.3750 0.0000  plane waves:   27860
 k-point 26 :   0.5000 0.3750 0.0000  plane waves:   27895
 k-point 27 :  -0.3750 0.3750 0.0000  plane waves:   27858
 k-point 28 :  -0.2500 0.3750 0.0000  plane waves:   27894
 k-point 29 :  -0.1250 0.3750 0.0000  plane waves:   27874
 k-point 30 :   0.0000 0.5000 0.0000  plane waves:   27932
 k-point 31 :   0.1250 0.5000 0.0000  plane waves:   27873
 k-point 32 :   0.2500 0.5000 0.0000  plane waves:   27875
 k-point 33 :   0.3750 0.5000 0.0000  plane waves:   27895
 k-point 34 :   0.5000 0.5000 0.0000  plane waves:   27910

 maximum and minimum number of plane-waves per node :     27959    27858

 maximum number of plane-waves:     27959
 maximum index in each direction: 
   IXMAX=   14   IYMAX=   13   IZMAX=   40
   IXMIN=  -14   IYMIN=  -14   IZMIN=  -40

 WARNING: aliasing errors must be expected set NGX to  58 to avoid them
 WARNING: aliasing errors must be expected set NGY to  56 to avoid them
 WARNING: aliasing errors must be expected set NGZ to 162 to avoid them
 aliasing errors are usually negligible using standard VASP settings
 and one can safely disregard these warnings

 serial   3D FFT for wavefunctions

 total amount of memory used by VASP on root node   650782. kBytes
========================================================================

   base      :      30000. kBytes
   nonl-proj :     559647. kBytes
   fftplans  :       2414. kBytes
   grid      :      12150. kBytes
   one-center:        419. kBytes
   wavefun   :      46152. kBytes
 
     INWAV:  cpu time    0.0001: real time    0.0003
 Broyden mixing: mesh for mixing (old mesh)
   NGX = 27   NGY = 27   NGZ = 81
  (NGX  = 84   NGY  = 84   NGZ  =252)
  gives a total of  59049 points

 initial charge density was supplied:
 charge density of overlapping atoms calculated
 number of electron     159.0000000 magnetization 
 keeping initial charge density in first step


--------------------------------------------------------------------------------------------------------


 Maximum index for augmentation-charges          148 (set IRDMAX)


--------------------------------------------------------------------------------------------------------


 First call to EWALD:  gamma=   0.129
 Maximum number of real-space cells 4x 4x 2
 Maximum number of reciprocal cells 2x 2x 5

 FEWALD executed in parallel
    FEWALD:  cpu time    0.0014: real time    0.0015


----------------------------------------- Iteration    1(   1)  ---------------------------------------


    POTLOK:  cpu time    0.0367: real time    0.0368
    SETDIJ:  cpu time    0.0030: real time    0.0031
     EDDAV:  cpu time   21.9416: real time   21.9979
       DOS:  cpu time    0.0014: real time    0.0014
    --------------------------------------------
      LOOP:  cpu time   21.9863: real time   22.0481

 eigenvalue-minimisations  :  8160
 total energy-change (2. order) : 0.1123824E+04  (-0.3585770E+04)
 number of electron     159.0000000 magnetization 
 augmentation part      159.0000000 magnetization 

 Free energy of the ion-electron system (eV)
  ---------------------------------------------------
  alpha Z        PSCENC =        81.65567618
  Ewald energy   TEWEN  =     41891.17178794
  -Hartree energ DENC   =    -47723.81768506
  -exchange      EXHF   =         0.00000000
  -V(xc)+E(xc)   XCENC  =      -242.92468715
  PAW double counting   =      3467.42045192    -2871.19716117
  entropy T*S    EENTRO =        -0.53395739
  eigenvalues    EBANDS =      -239.39342008
  atomic energy  EATOM  =      6761.44252427
  Solvation  Ediel_sol  =         0.00000000
  ---------------------------------------------------
  free energy    TOTEN  =      1123.82352946 eV

  energy without entropy =     1124.35748685  energy(sigma->0) =     1124.09050815


--------------------------------------------------------------------------------------------------------




----------------------------------------- Iteration    1(   2)  ---------------------------------------


     EDDAV:  cpu time   28.8152: real time   28.8848
       DOS:  cpu time    0.0000: real time    0.0009
    --------------------------------------------
      LOOP:  cpu time   28.8172: real time   28.8940

 eigenvalue-minimisations  : 11480
 total energy-change (2. order) :-0.1126928E+04  (-0.1083337E+04)
 number of electron     159.0000000 magnetization 
 augmentation part      159.0000000 magnetization 

 Free energy of the ion-electron system (eV)
  ---------------------------------------------------
  alpha Z        PSCENC =        81.65567618
  Ewald energy   TEWEN  =     41891.17178794
  -Hartree energ DENC   =    -47723.81768506
  -exchange      EXHF   =         0.00000000
  -V(xc)+E(xc)   XCENC  =      -242.92468715
  PAW double counting   =      3467.42045192    -2871.19716117
  entropy T*S    EENTRO =        -0.22042259
  eigenvalues    EBANDS =     -1366.63494231
  atomic energy  EATOM  =      6761.44252427
  Solvation  Ediel_sol  =         0.00000000
  ---------------------------------------------------
  free energy    TOTEN  =        -3.10445797 eV

  energy without entropy =       -2.88403538  energy(sigma->0) =       -2.99424667


--------------------------------------------------------------------------------------------------------




----------------------------------------- Iteration    1(   3)  ---------------------------------------


     EDDAV:  cpu time   27.5766: real time   27.6442
       DOS:  cpu time    0.0010: real time    0.0010
    --------------------------------------------
      LOOP:  cpu time   27.5797: real time   27.6520

 eigenvalue-minimisations  : 10880
 total energy-change (2. order) :-0.1969332E+03  (-0.1894599E+03)
 number of electron     159.0000000 magnetization 
 augmentation part      159.0000000 magnetization 

 Free energy of the ion-electron system (eV)
  ---------------------------------------------------
  alpha Z        PSCENC =        81.65567618
  Ewald energy   TEWEN  =     41891.17178794
  -Hartree energ DENC   =    -47723.81768506
  -exchange      EXHF   =         0.00000000
  -V(xc)+E(xc)   XCENC  =      -242.92468715
  PAW double counting   =      3467.42045192    -2871.19716117
  entropy T*S    EENTRO =        -0.26296917
  eigenvalues    EBANDS =     -1563.52556011
  atomic energy  EATOM  =      6761.44252427
  Solvation  Ediel_sol  =         0.00000000
  ---------------------------------------------------
  free energy    TOTEN  =      -200.03762235 eV

  energy without entropy =     -199.77465318  energy(sigma->0) =     -199.90613777


--------------------------------------------------------------------------------------------------------




----------------------------------------- Iteration    1(   4)  ---------------------------------------


     EDDAV:  cpu time   30.1815: real time   30.2538
       DOS:  cpu time    0.0010: real time    0.0010
    --------------------------------------------
      LOOP:  cpu time   30.1836: real time   30.2614

 eigenvalue-minimisations  : 12160
 total energy-change (2. order) :-0.8950395E+01  (-0.8719002E+01)
 number of electron     159.0000000 magnetization 
 augmentation part      159.0000000 magnetization 

 Free energy of the ion-electron system (eV)
  ---------------------------------------------------
  alpha Z        PSCENC =        81.65567618
  Ewald energy   TEWEN  =     41891.17178794
  -Hartree energ DENC   =    -47723.81768506
  -exchange      EXHF   =         0.00000000
  -V(xc)+E(xc)   XCENC  =      -242.92468715
  PAW double counting   =      3467.42045192    -2871.19716117
  entropy T*S    EENTRO =        -0.29117057
  eigenvalues    EBANDS =     -1572.44775415
  atomic energy  EATOM  =      6761.44252427
  Solvation  Ediel_sol  =         0.00000000
  ---------------------------------------------------
  free energy    TOTEN  =      -208.98801780 eV

  energy without entropy =     -208.69684722  energy(sigma->0) =     -208.84243251


--------------------------------------------------------------------------------------------------------




----------------------------------------- Iteration    1(   5)  ---------------------------------------


     EDDAV:  cpu time   28.1367: real time   28.2041
       DOS:  cpu time    0.0010: real time    0.0010
    CHARGE:  cpu time    0.4620: real time    0.4632
    MIXING:  cpu time    0.0018: real time    0.0019
    --------------------------------------------
      LOOP:  cpu time   28.6024: real time   28.6775

 eigenvalue-minimisations  : 11200
 total energy-change (2. order) :-0.3166556E+00  (-0.3158487E+00)
 number of electron     159.0000110 magnetization 
 augmentation part       -9.8034740 magnetization 

 Broyden mixing:
  rms(total) = 0.27508E+01    rms(broyden)= 0.27504E+01
  rms(prec ) = 0.29367E+01
  weight for this iteration     100.00

 Free energy of the ion-electron system (eV)
  ---------------------------------------------------
  alpha Z        PSCENC =        81.65567618
  Ewald energy   TEWEN  =     41891.17178794
  -Hartree energ DENC   =    -47723.81768506
  -exchange      EXHF   =         0.00000000
  -V(xc)+E(xc)   XCENC  =      -242.92468715
  PAW double counting   =      3467.42045192    -2871.19716117
  entropy T*S    EENTRO =        -0.28817197
  eigenvalues    EBANDS =     -1572.76740838
  atomic energy  EATOM  =      6761.44252427
  Solvation  Ediel_sol  =         0.00000000
  ---------------------------------------------------
  free energy    TOTEN  =      -209.30467343 eV

  energy without entropy =     -209.01650146  energy(sigma->0) =     -209.16058744


--------------------------------------------------------------------------------------------------------




----------------------------------------- Iteration    1(   6)  ---------------------------------------


    POTLOK:  cpu time    0.0347: real time    0.0360
    SETDIJ:  cpu time    0.0026: real time    0.0026
     EDDAV:  cpu time   30.8289: real time   30.9031
       DOS:  cpu time    0.0010: real time    0.0010
    CHARGE:  cpu time    0.4672: real time    0.4683
    MIXING:  cpu time    0.0023: real time    0.0024
    --------------------------------------------
      LOOP:  cpu time   31.3388: real time   31.4228

 eigenvalue-minimisations  : 12560
 total energy-change (2. order) :-0.2856906E+02  (-0.1079510E+02)
 number of electron     159.0000107 magnetization 
 augmentation part        7.0795902 magnetization 

 Broyden mixing:
  rms(total) = 0.59493E+01    rms(broyden)= 0.59486E+01
  rms(prec ) = 0.65606E+01
  weight for this iteration     100.00

 eigenvalues of (default mixing * dielectric matrix)
  average eigenvalue GAMMA=   0.2937
  0.2937

 Free energy of the ion-electron system (eV)
  ---------------------------------------------------
  alpha Z        PSCENC =        81.65567618
  Ewald energy   TEWEN  =     41891.17178794
  -Hartree energ DENC   =    -47702.21651677
  -exchange      EXHF   =         0.00000000
  -V(xc)+E(xc)   XCENC  =      -233.61816521
  PAW double counting   =      3676.53436927    -3082.62564158
  entropy T*S    EENTRO =        -0.25234196
  eigenvalues    EBANDS =     -1629.96542399
  atomic energy  EATOM  =      6761.44252427
  Solvation  Ediel_sol  =         0.00000000
  ---------------------------------------------------
  free energy    TOTEN  =      -237.87373185 eV

  energy without entropy =     -237.62138989  energy(sigma->0) =     -237.74756087


--------------------------------------------------------------------------------------------------------




----------------------------------------- Iteration    1(   7)  ---------------------------------------


    POTLOK:  cpu time    0.0305: real time    0.0328
    SETDIJ:  cpu time    0.0025: real time    0.0025
     EDDAV:  cpu time   32.7265: real time   32.8052
       DOS:  cpu time    0.0009: real time    0.0009
    CHARGE:  cpu time    0.4654: real time    0.4665
    MIXING:  cpu time    0.0011: real time    0.0012
    --------------------------------------------
      LOOP:  cpu time   33.2302: real time   33.3179

 eigenvalue-minimisations  : 13400
 total energy-change (2. order) : 0.4130552E+02  (-0.1752550E+02)
 number of electron     159.0000088 magnetization 
 augmentation part       -6.2627402 magnetization 

 Broyden mixing:
  rms(total) = 0.20019E+01    rms(broyden)= 0.20000E+01
  rms(prec ) = 0.22235E+01
  weight for this iteration     100.00

 eigenvalues of (default mixing * dielectric matrix)
  average eigenvalue GAMMA=   0.5522
  0.8932  0.2112

 Free energy of the ion-electron system (eV)
  ---------------------------------------------------
  alpha Z        PSCENC =        81.65567618
  Ewald energy   TEWEN  =     41891.17178794
  -Hartree energ DENC   =    -47739.21333757
  -exchange      EXHF   =         0.00000000
  -V(xc)+E(xc)   XCENC  =      -234.98914058
  PAW double counting   =      3763.78789389    -3177.82276900
  entropy T*S    EENTRO =        -0.35585139
  eigenvalues    EBANDS =     -1542.24499160
  atomic energy  EATOM  =      6761.44252427
  Solvation  Ediel_sol  =         0.00000000
  ---------------------------------------------------
  free energy    TOTEN  =      -196.56820785 eV

  energy without entropy =     -196.21235646  energy(sigma->0) =     -196.39028216


--------------------------------------------------------------------------------------------------------




----------------------------------------- Iteration    1(   8)  ---------------------------------------


    POTLOK:  cpu time    0.0305: real time    0.0306
    SETDIJ:  cpu time    0.0024: real time    0.0024
     EDDAV:  cpu time   29.8109: real time   29.8821
       DOS:  cpu time    0.0011: real time    0.0011
    CHARGE:  cpu time    0.4802: real time    0.4813
    MIXING:  cpu time    0.0002: real time    0.0011
    --------------------------------------------
      LOOP:  cpu time   30.3271: real time   30.4077

 eigenvalue-minimisations  : 12000
 total energy-change (2. order) : 0.7096567E+01  (-0.1763139E+01)
 number of electron     159.0000095 magnetization 
 augmentation part       -6.3735743 magnetization 

 Broyden mixing:
  rms(total) = 0.12524E+01    rms(broyden)= 0.12521E+01
  rms(prec ) = 0.13528E+01
  weight for this iteration     100.00

 eigenvalues of (default mixing * dielectric matrix)
  average eigenvalue GAMMA=   0.5862
  1.1356  0.2312  0.3918

 Free energy of the ion-electron system (eV)
  ---------------------------------------------------
  alpha Z        PSCENC =        81.65567618
  Ewald energy   TEWEN  =     41891.17178794
  -Hartree energ DENC   =    -47762.33504514
  -exchange      EXHF   =         0.00000000
  -V(xc)+E(xc)   XCENC  =      -235.00417752
  PAW double counting   =      3907.14118442    -3322.80778847
  entropy T*S    EENTRO =        -0.31140544
  eigenvalues    EBANDS =     -1510.42439714
  atomic energy  EATOM  =      6761.44252427
  Solvation  Ediel_sol  =         0.00000000
  ---------------------------------------------------
  free energy    TOTEN  =      -189.47164089 eV

  energy without entropy =     -189.16023545  energy(sigma->0) =     -189.31593817


--------------------------------------------------------------------------------------------------------




----------------------------------------- Iteration    1(   9)  ---------------------------------------


    POTLOK:  cpu time    0.0297: real time    0.0300
    SETDIJ:  cpu time    0.0024: real time    0.0024
     EDDAV:  cpu time   32.8828: real time   32.9618
       DOS:  cpu time    0.0010: real time    0.0010
    CHARGE:  cpu time    0.4840: real time    0.4852
    MIXING:  cpu time    0.0012: real time    0.0012
    --------------------------------------------
      LOOP:  cpu time   33.4023: real time   33.4906

 eigenvalue-minimisations  : 13480
 total energy-change (2. order) : 0.1344024E+01  (-0.3031535E+00)
 number of electron     159.0000091 magnetization 
 augmentation part       -5.5500648 magnetization 

 Broyden mixing:
  rms(total) = 0.91173E+00    rms(broyden)= 0.91150E+00
  rms(prec ) = 0.98901E+00
  weight for this iteration     100.00

 eigenvalues of (default mixing * dielectric matrix)
  average eigenvalue GAMMA=   0.7415
  1.8136  0.6219  0.2201  0.3103

 Free energy of the ion-electron system (eV)
  ---------------------------------------------------
  alpha Z        PSCENC =        81.65567618
  Ewald energy   TEWEN  =     41891.17178794
  -Hartree energ DENC   =    -47766.98619679
  -exchange      EXHF   =         0.00000000
  -V(xc)+E(xc)   XCENC  =      -234.10956439
  PAW double counting   =      3977.18535406    -3393.72384035
  entropy T*S    EENTRO =        -0.32135092
  eigenvalues    EBANDS =     -1504.44200662
  atomic energy  EATOM  =      6761.44252427
  Solvation  Ediel_sol  =         0.00000000
  ---------------------------------------------------
  free energy    TOTEN  =      -188.12761662 eV

  energy without entropy =     -187.80626569  energy(sigma->0) =     -187.96694116


--------------------------------------------------------------------------------------------------------




----------------------------------------- Iteration    1(  10)  ---------------------------------------


    POTLOK:  cpu time    0.0370: real time    0.0371
    SETDIJ:  cpu time    0.0024: real time    0.0024
     EDDAV:  cpu time   32.5841: real time   32.6623
       DOS:  cpu time    0.0010: real time    0.0010
    CHARGE:  cpu time    0.5005: real time    0.5017
    MIXING:  cpu time    0.0013: real time    0.0013
    --------------------------------------------
      LOOP:  cpu time   33.1285: real time   33.4275

 eigenvalue-minimisations  : 13400
 total energy-change (2. order) : 0.1191613E+01  (-0.1726217E+00)
 number of electron     159.0000092 magnetization 
 augmentation part       -4.2541891 magnetization 

 Broyden mixing:
  rms(total) = 0.21513E+00    rms(broyden)= 0.21455E+00
  rms(prec ) = 0.22705E+00
  weight for this iteration     100.00

 eigenvalues of (default mixing * dielectric matrix)
  average eigenvalue GAMMA=   0.8385
  1.8541  1.1878  0.6412  0.2205  0.2890

 Free energy of the ion-electron system (eV)
  ---------------------------------------------------
  alpha Z        PSCENC =        81.65567618
  Ewald energy   TEWEN  =     41891.17178794
  -Hartree energ DENC   =    -47780.20982712
  -exchange      EXHF   =         0.00000000
  -V(xc)+E(xc)   XCENC  =      -232.57281715
  PAW double counting   =      4105.43741023    -3523.58112207
  entropy T*S    EENTRO =        -0.35108494
  eigenvalues    EBANDS =     -1489.92855110
  atomic energy  EATOM  =      6761.44252427
  Solvation  Ediel_sol  =         0.00000000
  ---------------------------------------------------
  free energy    TOTEN  =      -186.93600376 eV

  energy without entropy =     -186.58491882  energy(sigma->0) =     -186.76046129


--------------------------------------------------------------------------------------------------------




----------------------------------------- Iteration    1(  11)  ---------------------------------------


    POTLOK:  cpu time    0.0305: real time    0.0306
    SETDIJ:  cpu time    0.0024: real time    0.0024
     EDDAV:  cpu time   32.7999: real time   32.8783
       DOS:  cpu time    0.0011: real time    0.0011
    CHARGE:  cpu time    0.4964: real time    0.4975
    MIXING:  cpu time    0.0013: real time    0.0013
    --------------------------------------------
      LOOP:  cpu time   33.3324: real time   33.4202

 eigenvalue-minimisations  : 13480
 total energy-change (2. order) :-0.8855115E-01  (-0.5888262E-01)
 number of electron     159.0000090 magnetization 
 augmentation part       -4.4483092 magnetization 

 Broyden mixing:
  rms(total) = 0.36914E+00    rms(broyden)= 0.36891E+00
  rms(prec ) = 0.40865E+00
  weight for this iteration     100.00

 eigenvalues of (default mixing * dielectric matrix)
  average eigenvalue GAMMA=   0.8537
  1.8606  1.8606  0.6390  0.2186  0.2839  0.2593

 Free energy of the ion-electron system (eV)
  ---------------------------------------------------
  alpha Z        PSCENC =        81.65567618
  Ewald energy   TEWEN  =     41891.17178794
  -Hartree energ DENC   =    -47790.10264565
  -exchange      EXHF   =         0.00000000
  -V(xc)+E(xc)   XCENC  =      -232.24363358
  PAW double counting   =      4151.64471114    -3569.90505930
  entropy T*S    EENTRO =        -0.33816195
  eigenvalues    EBANDS =     -1480.34975395
  atomic energy  EATOM  =      6761.44252427
  Solvation  Ediel_sol  =         0.00000000
  ---------------------------------------------------
  free energy    TOTEN  =      -187.02455490 eV

  energy without entropy =     -186.68639296  energy(sigma->0) =     -186.85547393


--------------------------------------------------------------------------------------------------------




----------------------------------------- Iteration    1(  12)  ---------------------------------------


    POTLOK:  cpu time    0.0377: real time    0.0378
    SETDIJ:  cpu time    0.0024: real time    0.0024
     EDDAV:  cpu time   31.3028: real time   31.3780
       DOS:  cpu time    0.0010: real time    0.0010
    CHARGE:  cpu time    0.5009: real time    0.5020
    MIXING:  cpu time    0.0013: real time    0.0014
    --------------------------------------------
      LOOP:  cpu time   31.8471: real time   31.9254

 eigenvalue-minimisations  : 12760
 total energy-change (2. order) : 0.7672092E-01  (-0.6991493E-01)
 number of electron     159.0000088 magnetization 
 augmentation part       -4.4527367 magnetization 

 Broyden mixing:
  rms(total) = 0.32585E+00    rms(broyden)= 0.32564E+00
  rms(prec ) = 0.36107E+00
  weight for this iteration     100.00

 eigenvalues of (default mixing * dielectric matrix)
  average eigenvalue GAMMA=   0.8069
  1.9639  1.9639  0.6386  0.3983  0.2983  0.2197  0.1653

 Free energy of the ion-electron system (eV)
  ---------------------------------------------------
  alpha Z        PSCENC =        81.65567618
  Ewald energy   TEWEN  =     41891.17178794
  -Hartree energ DENC   =    -47797.33666330
  -exchange      EXHF   =         0.00000000
  -V(xc)+E(xc)   XCENC  =      -232.04113822
  PAW double counting   =      4179.52435526    -3597.76615971
  entropy T*S    EENTRO =        -0.33228538
  eigenvalues    EBANDS =     -1473.26593103
  atomic energy  EATOM  =      6761.44252427
  Solvation  Ediel_sol  =         0.00000000
  ---------------------------------------------------
  free energy    TOTEN  =      -186.94783399 eV

  energy without entropy =     -186.61554861  energy(sigma->0) =     -186.78169130


--------------------------------------------------------------------------------------------------------




----------------------------------------- Iteration    1(  13)  ---------------------------------------


    POTLOK:  cpu time    0.0320: real time    0.0323
    SETDIJ:  cpu time    0.0024: real time    0.0024
     EDDAV:  cpu time   31.9722: real time   32.0486
       DOS:  cpu time    0.0011: real time    0.0011
    CHARGE:  cpu time    0.4999: real time    0.5011
    MIXING:  cpu time    0.0013: real time    0.0013
    --------------------------------------------
      LOOP:  cpu time   32.5100: real time   32.5960

 eigenvalue-minimisations  : 13120
 total energy-change (2. order) : 0.8229842E-01  (-0.2449816E-01)
 number of electron     159.0000088 magnetization 
 augmentation part       -4.3720361 magnetization 

 Broyden mixing:
  rms(total) = 0.18281E+00    rms(broyden)= 0.18267E+00
  rms(prec ) = 0.20508E+00
  weight for this iteration     100.00

 eigenvalues of (default mixing * dielectric matrix)
  average eigenvalue GAMMA=   0.7914
  2.2285  1.7369  0.8112  0.6359  0.2994  0.2200  0.2564  0.1430

 Free energy of the ion-electron system (eV)
  ---------------------------------------------------
  alpha Z        PSCENC =        81.65567618
  Ewald energy   TEWEN  =     41891.17178794
  -Hartree energ DENC   =    -47800.43922470
  -exchange      EXHF   =         0.00000000
  -V(xc)+E(xc)   XCENC  =      -231.95914898
  PAW double counting   =      4187.94758643    -3606.15883387
  entropy T*S    EENTRO =        -0.33549953
  eigenvalues    EBANDS =     -1470.19040330
  atomic energy  EATOM  =      6761.44252427
  Solvation  Ediel_sol  =         0.00000000
  ---------------------------------------------------
  free energy    TOTEN  =      -186.86553557 eV

  energy without entropy =     -186.53003604  energy(sigma->0) =     -186.69778580


--------------------------------------------------------------------------------------------------------




----------------------------------------- Iteration    1(  14)  ---------------------------------------


    POTLOK:  cpu time    0.0308: real time    0.0312
    SETDIJ:  cpu time    0.0023: real time    0.0024
     EDDAV:  cpu time   31.3429: real time   31.4183
       DOS:  cpu time    0.0010: real time    0.0010
    CHARGE:  cpu time    0.5023: real time    0.5035
    MIXING:  cpu time    0.0015: real time    0.0015
    --------------------------------------------
      LOOP:  cpu time   31.8821: real time   31.9661

 eigenvalue-minimisations  : 12800
 total energy-change (2. order) : 0.3838523E-01  (-0.9133390E-02)
 number of electron     159.0000089 magnetization 
 augmentation part       -4.1397715 magnetization 

 Broyden mixing:
  rms(total) = 0.60833E-01    rms(broyden)= 0.60639E-01
  rms(prec ) = 0.68636E-01
  weight for this iteration     100.00

 eigenvalues of (default mixing * dielectric matrix)
  average eigenvalue GAMMA=   0.7793
  2.2360  1.7967  0.9572  0.5873  0.5246  0.2981  0.2203  0.2521  0.1411

 Free energy of the ion-electron system (eV)
  ---------------------------------------------------
  alpha Z        PSCENC =        81.65567618
  Ewald energy   TEWEN  =     41891.17178794
  -Hartree energ DENC   =    -47804.05434438
  -exchange      EXHF   =         0.00000000
  -V(xc)+E(xc)   XCENC  =      -231.87472104
  PAW double counting   =      4191.91906749    -3610.07270990
  entropy T*S    EENTRO =        -0.34340254
  eigenvalues    EBANDS =     -1466.67102835
  atomic energy  EATOM  =      6761.44252427
  Solvation  Ediel_sol  =         0.00000000
  ---------------------------------------------------
  free energy    TOTEN  =      -186.82715034 eV

  energy without entropy =     -186.48374779  energy(sigma->0) =     -186.65544907


--------------------------------------------------------------------------------------------------------




----------------------------------------- Iteration    1(  15)  ---------------------------------------


    POTLOK:  cpu time    0.0310: real time    0.0311
    SETDIJ:  cpu time    0.0024: real time    0.0024
     EDDAV:  cpu time   28.1097: real time   28.1769
       DOS:  cpu time    0.0002: real time    0.0011
    CHARGE:  cpu time    0.4989: real time    0.5001
    MIXING:  cpu time    0.0016: real time    0.0016
    --------------------------------------------
      LOOP:  cpu time   28.6457: real time   28.7229

 eigenvalue-minimisations  : 11240
 total energy-change (2. order) : 0.3842188E-02  (-0.1045636E-02)
 number of electron     159.0000089 magnetization 
 augmentation part       -4.1622298 magnetization 

 Broyden mixing:
  rms(total) = 0.31644E-01    rms(broyden)= 0.31625E-01
  rms(prec ) = 0.36585E-01
  weight for this iteration     100.00

 eigenvalues of (default mixing * dielectric matrix)
  average eigenvalue GAMMA=   0.8222
  2.2966  2.0114  1.2677  0.6840  0.6840  0.3682  0.2982  0.2202  0.2500  0.1412

 Free energy of the ion-electron system (eV)
  ---------------------------------------------------
  alpha Z        PSCENC =        81.65567618
  Ewald energy   TEWEN  =     41891.17178794
  -Hartree energ DENC   =    -47806.90795229
  -exchange      EXHF   =         0.00000000
  -V(xc)+E(xc)   XCENC  =      -231.83235850
  PAW double counting   =      4193.04691645    -3611.16004857
  entropy T*S    EENTRO =        -0.34229722
  eigenvalues    EBANDS =     -1463.89755641
  atomic energy  EATOM  =      6761.44252427
  Solvation  Ediel_sol  =         0.00000000
  ---------------------------------------------------
  free energy    TOTEN  =      -186.82330815 eV

  energy without entropy =     -186.48101093  energy(sigma->0) =     -186.65215954


--------------------------------------------------------------------------------------------------------




----------------------------------------- Iteration    1(  16)  ---------------------------------------


    POTLOK:  cpu time    0.0297: real time    0.0310
    SETDIJ:  cpu time    0.0024: real time    0.0024
     EDDAV:  cpu time   31.0116: real time   31.0862
       DOS:  cpu time    0.0010: real time    0.0010
    CHARGE:  cpu time    0.5040: real time    0.5052
    MIXING:  cpu time    0.0016: real time    0.0016
    --------------------------------------------
      LOOP:  cpu time   31.5525: real time   31.6358

 eigenvalue-minimisations  : 12680
 total energy-change (2. order) :-0.1015980E-02  (-0.9939271E-03)
 number of electron     159.0000089 magnetization 
 augmentation part       -4.2039865 magnetization 

 Broyden mixing:
  rms(total) = 0.58775E-01    rms(broyden)= 0.58752E-01
  rms(prec ) = 0.65364E-01
  weight for this iteration     100.00

 eigenvalues of (default mixing * dielectric matrix)
  average eigenvalue GAMMA=   0.8009
  2.4131  2.1307  1.3941  0.7633  0.6555  0.4013  0.2986  0.2203  0.2506  0.1414
  0.1414

 Free energy of the ion-electron system (eV)
  ---------------------------------------------------
  alpha Z        PSCENC =        81.65567618
  Ewald energy   TEWEN  =     41891.17178794
  -Hartree energ DENC   =    -47811.71557409
  -exchange      EXHF   =         0.00000000
  -V(xc)+E(xc)   XCENC  =      -231.76904484
  PAW double counting   =      4194.58188433    -3612.64294417
  entropy T*S    EENTRO =        -0.34116875
  eigenvalues    EBANDS =     -1459.20746501
  atomic energy  EATOM  =      6761.44252427
  Solvation  Ediel_sol  =         0.00000000
  ---------------------------------------------------
  free energy    TOTEN  =      -186.82432413 eV

  energy without entropy =     -186.48315538  energy(sigma->0) =     -186.65373976


--------------------------------------------------------------------------------------------------------




----------------------------------------- Iteration    1(  17)  ---------------------------------------


    POTLOK:  cpu time    0.0315: real time    0.0316
    SETDIJ:  cpu time    0.0025: real time    0.0025
     EDDAV:  cpu time   31.9776: real time   32.0540
       DOS:  cpu time    0.0010: real time    0.0010
    CHARGE:  cpu time    0.5011: real time    0.5023
    MIXING:  cpu time    0.0018: real time    0.0018
    --------------------------------------------
      LOOP:  cpu time   32.5166: real time   32.6031

 eigenvalue-minimisations  : 13080
 total energy-change (2. order) : 0.2803054E-02  (-0.7392235E-03)
 number of electron     159.0000089 magnetization 
 augmentation part       -4.2148467 magnetization 

 Broyden mixing:
  rms(total) = 0.21057E-01    rms(broyden)= 0.21014E-01
  rms(prec ) = 0.24457E-01
  weight for this iteration     100.00

 eigenvalues of (default mixing * dielectric matrix)
  average eigenvalue GAMMA=   0.8204
  2.3051  2.3051  1.3525  1.1523  0.6593  0.6593  0.3770  0.2975  0.2202  0.2504
  0.1413  0.1245

 Free energy of the ion-electron system (eV)
  ---------------------------------------------------
  alpha Z        PSCENC =        81.65567618
  Ewald energy   TEWEN  =     41891.17178794
  -Hartree energ DENC   =    -47813.89677118
  -exchange      EXHF   =         0.00000000
  -V(xc)+E(xc)   XCENC  =      -231.74200440
  PAW double counting   =      4195.06487416    -3613.10524111
  entropy T*S    EENTRO =        -0.34094368
  eigenvalues    EBANDS =     -1457.07142326
  atomic energy  EATOM  =      6761.44252427
  Solvation  Ediel_sol  =         0.00000000
  ---------------------------------------------------
  free energy    TOTEN  =      -186.82152108 eV

  energy without entropy =     -186.48057739  energy(sigma->0) =     -186.65104924


--------------------------------------------------------------------------------------------------------




----------------------------------------- Iteration    1(  18)  ---------------------------------------


    POTLOK:  cpu time    0.0302: real time    0.0305
    SETDIJ:  cpu time    0.0024: real time    0.0024
     EDDAV:  cpu time   28.9464: real time   29.0157
       DOS:  cpu time    0.0010: real time    0.0010
    CHARGE:  cpu time    0.5036: real time    0.5048
    MIXING:  cpu time    0.0018: real time    0.0018
    --------------------------------------------
      LOOP:  cpu time   29.4866: real time   29.5653

 eigenvalue-minimisations  : 11640
 total energy-change (2. order) : 0.4274182E-03  (-0.1329557E-03)
 number of electron     159.0000089 magnetization 
 augmentation part       -4.1862842 magnetization 

 Broyden mixing:
  rms(total) = 0.64856E-02    rms(broyden)= 0.64713E-02
  rms(prec ) = 0.93749E-02
  weight for this iteration     100.00

 eigenvalues of (default mixing * dielectric matrix)
  average eigenvalue GAMMA=   0.8832
  2.4992  2.4992  1.5523  1.2603  0.9795  0.6412  0.6412  0.3750  0.2976  0.2202
  0.2504  0.1413  0.1243

 Free energy of the ion-electron system (eV)
  ---------------------------------------------------
  alpha Z        PSCENC =        81.65567618
  Ewald energy   TEWEN  =     41891.17178794
  -Hartree energ DENC   =    -47817.23170470
  -exchange      EXHF   =         0.00000000
  -V(xc)+E(xc)   XCENC  =      -231.71040232
  PAW double counting   =      4194.68004538    -3612.69995740
  entropy T*S    EENTRO =        -0.34158729
  eigenvalues    EBANDS =     -1453.78747572
  atomic energy  EATOM  =      6761.44252427
  Solvation  Ediel_sol  =         0.00000000
  ---------------------------------------------------
  free energy    TOTEN  =      -186.82109366 eV

  energy without entropy =     -186.47950637  energy(sigma->0) =     -186.65030001


--------------------------------------------------------------------------------------------------------




----------------------------------------- Iteration    1(  19)  ---------------------------------------


    POTLOK:  cpu time    0.0304: real time    0.0307
    SETDIJ:  cpu time    0.0023: real time    0.0024
     EDDAV:  cpu time   27.1712: real time   27.2361
       DOS:  cpu time    0.0010: real time    0.0010
    CHARGE:  cpu time    0.5011: real time    0.5023
    MIXING:  cpu time    0.0018: real time    0.0018
    --------------------------------------------
      LOOP:  cpu time   27.7090: real time   27.7828

 eigenvalue-minimisations  : 10840
 total energy-change (2. order) :-0.5744845E-03  (-0.8077520E-04)
 number of electron     159.0000089 magnetization 
 augmentation part       -4.1964731 magnetization 

 Broyden mixing:
  rms(total) = 0.85253E-02    rms(broyden)= 0.85192E-02
  rms(prec ) = 0.10536E-01
  weight for this iteration     100.00

 eigenvalues of (default mixing * dielectric matrix)
  average eigenvalue GAMMA=   0.8757
  2.6300  2.6300  1.6491  1.3320  1.0136  0.6464  0.6464  0.3753  0.2202  0.2505
  0.2975  0.3034  0.1413  0.1243

 Free energy of the ion-electron system (eV)
  ---------------------------------------------------
  alpha Z        PSCENC =        81.65567618
  Ewald energy   TEWEN  =     41891.17178794
  -Hartree energ DENC   =    -47822.23426552
  -exchange      EXHF   =         0.00000000
  -V(xc)+E(xc)   XCENC  =      -231.66889770
  PAW double counting   =      4193.54345986    -3611.54409660
  entropy T*S    EENTRO =        -0.34117721
  eigenvalues    EBANDS =     -1448.84667938
  atomic energy  EATOM  =      6761.44252427
  Solvation  Ediel_sol  =         0.00000000
  ---------------------------------------------------
  free energy    TOTEN  =      -186.82166814 eV

  energy without entropy =     -186.48049094  energy(sigma->0) =     -186.65107954


--------------------------------------------------------------------------------------------------------




----------------------------------------- Iteration    1(  20)  ---------------------------------------


    POTLOK:  cpu time    0.0302: real time    0.0315
    SETDIJ:  cpu time    0.0025: real time    0.0025
     EDDAV:  cpu time   22.1075: real time   22.1603
       DOS:  cpu time    0.0011: real time    0.0011
    CHARGE:  cpu time    0.5044: real time    0.5056
    MIXING:  cpu time    0.0021: real time    0.0021
    --------------------------------------------
      LOOP:  cpu time   22.6499: real time   22.7124

 eigenvalue-minimisations  :  8320
 total energy-change (2. order) :-0.2987119E-03  (-0.3539509E-04)
 number of electron     159.0000089 magnetization 
 augmentation part       -4.1976208 magnetization 

 Broyden mixing:
  rms(total) = 0.55753E-02    rms(broyden)= 0.55680E-02
  rms(prec ) = 0.70390E-02
  weight for this iteration     100.00

 eigenvalues of (default mixing * dielectric matrix)
  average eigenvalue GAMMA=   0.9523
  3.2748  2.5182  1.7658  1.7658  1.0050  1.0050  0.6437  0.6437  0.3753  0.2976
  0.2202  0.1413  0.2505  0.2536  0.1243

 Free energy of the ion-electron system (eV)
  ---------------------------------------------------
  alpha Z        PSCENC =        81.65567618
  Ewald energy   TEWEN  =     41891.17178794
  -Hartree energ DENC   =    -47824.38770619
  -exchange      EXHF   =         0.00000000
  -V(xc)+E(xc)   XCENC  =      -231.65214115
  PAW double counting   =      4193.10006367    -3611.09499975
  entropy T*S    EENTRO =        -0.34107934
  eigenvalues    EBANDS =     -1446.71609249
  atomic energy  EATOM  =      6761.44252427
  Solvation  Ediel_sol  =         0.00000000
  ---------------------------------------------------
  free energy    TOTEN  =      -186.82196685 eV

  energy without entropy =     -186.48088751  energy(sigma->0) =     -186.65142718


--------------------------------------------------------------------------------------------------------




----------------------------------------- Iteration    1(  21)  ---------------------------------------


    POTLOK:  cpu time    0.0290: real time    0.0303
    SETDIJ:  cpu time    0.0024: real time    0.0024
     EDDAV:  cpu time   22.1552: real time   22.2084
       DOS:  cpu time    0.0011: real time    0.0011
    CHARGE:  cpu time    0.4998: real time    0.5010
    MIXING:  cpu time    0.0019: real time    0.0019
    --------------------------------------------
      LOOP:  cpu time   22.6916: real time   22.7541

 eigenvalue-minimisations  :  8360
 total energy-change (2. order) :-0.1190990E-02  (-0.2948541E-04)
 number of electron     159.0000089 magnetization 
 augmentation part       -4.1892277 magnetization 

 Broyden mixing:
  rms(total) = 0.25737E-02    rms(broyden)= 0.25694E-02
  rms(prec ) = 0.34330E-02
  weight for this iteration     100.00

 eigenvalues of (default mixing * dielectric matrix)
  average eigenvalue GAMMA=   0.9916
  3.7372  2.4829  2.1349  1.6715  1.0815  1.0815  0.7450  0.6349  0.6349  0.3752
  0.2976  0.2202  0.1413  0.2505  0.2528  0.1243

 Free energy of the ion-electron system (eV)
  ---------------------------------------------------
  alpha Z        PSCENC =        81.65567618
  Ewald energy   TEWEN  =     41891.17178794
  -Hartree energ DENC   =    -47828.39220742
  -exchange      EXHF   =         0.00000000
  -V(xc)+E(xc)   XCENC  =      -231.62487745
  PAW double counting   =      4192.47527866    -3610.46798195
  entropy T*S    EENTRO =        -0.34119130
  eigenvalues    EBANDS =     -1442.74216679
  atomic energy  EATOM  =      6761.44252427
  Solvation  Ediel_sol  =         0.00000000
  ---------------------------------------------------
  free energy    TOTEN  =      -186.82315784 eV

  energy without entropy =     -186.48196655  energy(sigma->0) =     -186.65256220


--------------------------------------------------------------------------------------------------------




----------------------------------------- Iteration    1(  22)  ---------------------------------------


    POTLOK:  cpu time    0.0302: real time    0.0303
    SETDIJ:  cpu time    0.0023: real time    0.0023
     EDDAV:  cpu time   18.9150: real time   18.9606
       DOS:  cpu time    0.0011: real time    0.0011
    CHARGE:  cpu time    0.5030: real time    0.5042
    MIXING:  cpu time    0.0020: real time    0.0020
    --------------------------------------------
      LOOP:  cpu time   19.4555: real time   19.5096

 eigenvalue-minimisations  :  6760
 total energy-change (2. order) :-0.7845484E-03  (-0.7984162E-05)
 number of electron     159.0000089 magnetization 
 augmentation part       -4.1897074 magnetization 

 Broyden mixing:
  rms(total) = 0.24480E-02    rms(broyden)= 0.24460E-02
  rms(prec ) = 0.30572E-02
  weight for this iteration     100.00

 eigenvalues of (default mixing * dielectric matrix)
  average eigenvalue GAMMA=   1.0674
  4.7652  2.4899  2.4899  1.6427  1.3924  1.0174  1.0174  0.6403  0.6403  0.3752
  0.3882  0.2976  0.2202  0.2505  0.2526  0.1413  0.1243

 Free energy of the ion-electron system (eV)
  ---------------------------------------------------
  alpha Z        PSCENC =        81.65567618
  Ewald energy   TEWEN  =     41891.17178794
  -Hartree energ DENC   =    -47830.18854935
[...]
    104      -0.5549      0.00000
    105      -0.4775      0.00000
    106      -0.4014      0.00000
    107      -0.3408      0.00000
    108      -0.1065      0.00000
    109       0.0153      0.00000
    110       0.1391      0.00000
    111       0.3605      0.00000
    112       0.5896      0.00000
    113       0.7552      0.00000
    114       0.9901      0.00000
    115       1.1831      0.00000
    116       1.3096      0.00000
    117       1.5769      0.00000
    118       2.1641      0.00000
    119       2.3123      0.00000
    120       2.4227      0.00000

 k-point    34 :       0.5000    0.5000    0.0000
  band No.  band energies     occupation 
      1     -17.5067      2.00000
      2     -17.3499      2.00000
      3     -16.7450      2.00000
      4     -16.7167      2.00000
      5     -16.5821      2.00000
      6     -16.5524      2.00000
      7     -16.2770      2.00000
      8     -16.1982      2.00000
      9     -16.1175      2.00000
     10     -16.0812      2.00000
     11     -15.8785      2.00000
     12     -15.8339      2.00000
     13     -15.7684      2.00000
     14     -15.6976      2.00000
     15     -15.6412      2.00000
     16     -15.4309      2.00000
     17     -15.3386      2.00000
     18     -15.2148      2.00000
     19      -9.8155      2.00000
     20      -9.3534      2.00000
     21      -9.3041      2.00000
     22      -9.0085      2.00000
     23      -8.9413      2.00000
     24      -8.8323      2.00000
     25      -8.6789      2.00000
     26      -8.6631      2.00000
     27      -8.4414      2.00000
     28      -8.2931      2.00000
     29      -8.2301      2.00000
     30      -8.1338      2.00000
     31      -8.0826      2.00000
     32      -8.0118      2.00000
     33      -7.9221      2.00000
     34      -7.8469      2.00000
     35      -7.7465      2.00000
     36      -7.6823      2.00000
     37      -7.6422      2.00000
     38      -7.5969      2.00000
     39      -7.4672      2.00000
     40      -7.3362      2.00000
     41      -7.0913      2.00000
     42      -7.0724      2.00000
     43      -7.0011      2.00000
     44      -6.8531      2.00000
     45      -6.8248      2.00000
     46      -6.7131      2.00000
     47      -6.6514      2.00000
     48      -6.5887      2.00000
     49      -6.5210      2.00000
     50      -6.4611      2.00000
     51      -6.4115      2.00000
     52      -6.3450      2.00000
     53      -6.2681      2.00000
     54      -6.1812      2.00000
     55      -6.1105      2.00000
     56      -6.0950      2.00000
     57      -6.0089      2.00000
     58      -5.8461      2.00000
     59      -5.8157      2.00000
     60      -5.7919      2.00000
     61      -5.6292      2.00000
     62      -5.5967      2.00000
     63      -5.5332      2.00000
     64      -5.4098      2.00000
     65      -5.2228      2.00000
     66      -5.0677      2.00000
     67      -4.9998      2.00000
     68      -4.9532      2.00000
     69      -4.8324      2.00000
     70      -4.6282      2.00000
     71      -4.5771      2.00000
     72      -4.4470      2.00000
     73      -4.3355      2.00000
     74      -4.1785      2.00000
     75      -4.0380      2.00000
     76      -4.0113      2.00000
     77      -3.8566      1.99998
     78      -3.6807      1.99785
     79      -3.4737      1.89162
     80      -3.3343      1.46461
     81      -2.9902      0.06973
     82      -2.9513      0.03675
     83      -2.6586      0.00003
     84      -2.6090      0.00001
     85      -2.4580      0.00000
     86      -2.3403      0.00000
     87      -2.1855      0.00000
     88      -2.1018      0.00000
     89      -1.9247      0.00000
     90      -1.8440      0.00000
     91      -1.6560      0.00000
     92      -1.5639      0.00000
     93      -1.3853      0.00000
     94      -1.3623      0.00000
     95      -1.1977      0.00000
     96      -1.0862      0.00000
     97      -1.0699      0.00000
     98      -0.9948      0.00000
     99      -0.9272      0.00000
    100      -0.8919      0.00000
    101      -0.8201      0.00000
    102      -0.7061      0.00000
    103      -0.6296      0.00000
    104      -0.5975      0.00000
    105      -0.4788      0.00000
    106      -0.4042      0.00000
    107      -0.2930      0.00000
    108      -0.1155      0.00000
    109       0.0234      0.00000
    110       0.2009      0.00000
    111       0.2791      0.00000
    112       0.5893      0.00000
    113       0.7753      0.00000
    114       1.0477      0.00000
    115       1.1451      0.00000
    116       1.3295      0.00000
    117       1.5731      0.00000
    118       2.2537      0.00000
    119       2.2676      0.00000
    120       2.4075      0.00000


--------------------------------------------------------------------------------------------------------


 soft charge-density along one line, spin component           1
         0         1         2         3         4         5         6         7         8         9
 total charge-density along one line
 
 pseudopotential strength for first ion, spin component:           1
 -7.168   0.005  -0.026   0.024   0.002   0.658  -0.002   0.008
  0.005  -7.060   0.012   0.020  -0.024  -0.002   0.626  -0.004
 -0.026   0.012  -7.024   0.007   0.014   0.008  -0.004   0.616
  0.024   0.020   0.007  -7.081   0.022  -0.007  -0.006  -0.002
  0.002  -0.024   0.014   0.022  -7.166  -0.001   0.007  -0.004
  0.658  -0.002   0.008  -0.007  -0.001   0.338   0.001  -0.002
 -0.002   0.626  -0.004  -0.006   0.007   0.001   0.347   0.001
  0.008  -0.004   0.616  -0.002  -0.004  -0.002   0.001   0.350
 -0.007  -0.006  -0.002   0.632  -0.006   0.002   0.002   0.001
 -0.001   0.007  -0.004  -0.006   0.657   0.000  -0.002   0.001
 -0.008  -0.008  -0.021  -0.004   0.004   0.002   0.002   0.005
 -0.003  -0.002  -0.007  -0.001   0.001   0.001   0.001   0.002
 -0.004  -0.002   0.002  -0.002   0.007   0.000   0.000   0.000
 -0.002  -0.010  -0.000  -0.006   0.001   0.000   0.001   0.000
 -0.007  -0.002   0.001   0.001  -0.004   0.000   0.000   0.000
 -0.003  -0.001   0.001  -0.002   0.005   0.000   0.000  -0.000
 -0.002  -0.007   0.001  -0.004   0.001   0.000   0.001  -0.000
 -0.005  -0.002   0.001   0.001  -0.003   0.001   0.000  -0.000
 total augmentation occupancy for first ion, spin component:           1
  0.794   0.151  -0.061   0.021   0.064   0.441   0.210  -0.004  -0.005   0.007   0.038  -0.001   0.005  -0.040   0.008   0.002
  0.151   1.046   0.030  -0.024  -0.022   0.209   0.638   0.025  -0.009   0.005  -0.007   0.004  -0.039  -0.055  -0.043  -0.002
 -0.061   0.030   0.890   0.016   0.032  -0.003   0.025   0.353   0.014   0.001   0.132   0.005  -0.052   0.003  -0.029  -0.003
  0.021  -0.024   0.016   1.073  -0.127  -0.005  -0.009   0.015   0.649  -0.214  -0.004   0.002  -0.044  -0.032   0.010  -0.002
  0.064  -0.022   0.032  -0.127   0.865   0.007   0.005   0.002  -0.216   0.449  -0.022   0.000  -0.009   0.023   0.005  -0.003
  0.441   0.209  -0.003  -0.005   0.007   0.380   0.217   0.004  -0.001  -0.004  -0.009  -0.001  -0.013  -0.055  -0.020   0.000
  0.210   0.638   0.025  -0.009   0.005   0.217   0.574   0.017  -0.004   0.001   0.009   0.002  -0.039  -0.078  -0.053  -0.003
 -0.004   0.025   0.353   0.015   0.002   0.004   0.017   0.280   0.010  -0.002   0.035   0.009  -0.021   0.003  -0.012  -0.004
 -0.005  -0.009   0.014   0.649  -0.216  -0.001  -0.004   0.010   0.579  -0.218   0.005   0.001  -0.053  -0.045   0.021  -0.004
  0.007   0.005   0.001  -0.214   0.449  -0.004   0.001  -0.002  -0.218   0.375   0.005   0.001   0.020   0.032  -0.010  -0.001
  0.038  -0.007   0.132  -0.004  -0.022  -0.009   0.009   0.035   0.005   0.005   1.371   0.141  -0.023  -0.017  -0.013  -0.002
 -0.001   0.004   0.005   0.002   0.000  -0.001   0.002   0.009   0.001   0.001   0.141   0.026  -0.008  -0.000  -0.005  -0.001
  0.005  -0.039  -0.052  -0.044  -0.009  -0.013  -0.039  -0.021  -0.053   0.020  -0.023  -0.008   0.361   0.000   0.009   0.027
 -0.040  -0.055   0.003  -0.032   0.023  -0.055  -0.078   0.003  -0.045   0.032  -0.017  -0.000   0.000   0.415   0.000  -0.000
  0.008  -0.043  -0.029   0.010   0.005  -0.020  -0.053  -0.012   0.021  -0.010  -0.013  -0.005   0.009   0.000   0.351  -0.000
  0.002  -0.002  -0.003  -0.002  -0.003   0.000  -0.003  -0.004  -0.004  -0.001  -0.002  -0.001   0.027  -0.000  -0.000   0.003
 -0.002   0.001  -0.000   0.001   0.001  -0.004  -0.005   0.000  -0.003   0.002  -0.001  -0.000  -0.000   0.029  -0.000   0.000
  0.003  -0.002  -0.002   0.000   0.002   0.001  -0.004  -0.003   0.001   0.001  -0.001  -0.000  -0.000  -0.000   0.027  -0.000


------------------------ aborting loop because EDIFF is reached ----------------------------------------


    CHARGE:  cpu time    0.4621: real time    0.4632
    FORLOC:  cpu time    0.0063: real time    0.0063
    FORNL :  cpu time    5.3453: real time    5.3580
    STRESS:  cpu time   32.1722: real time   32.2490
    FORCOR:  cpu time    0.0336: real time    0.0337
    FORHAR:  cpu time    0.0123: real time    0.0124
    MIXING:  cpu time    0.0011: real time    0.0011
    OFIELD:  cpu time    0.0000: real time    0.0000

  FORCE on cell =-STRESS in cart. coord.  units (eV):
  Direction    XX          YY          ZZ          XY          YZ          ZX
  --------------------------------------------------------------------------------------
  Alpha Z    89.55092    89.55092    89.55092
  Ewald   49377.70344 49331.98674-54295.70395   -39.01100    21.36180    12.03133
  Hartree 50082.99569 50053.88834-49715.03456   -24.95186    11.88909     6.80595
  E(xc)    -609.63246  -610.68657  -617.91605    -0.91613    -0.95072    -0.54115
  Local  ************************101448.20825    57.10762   -41.39301   -23.50522
  n-local  1213.64422  1215.58800  1248.98485     1.69636    -2.25381    -1.36632
  augment  -213.28272  -212.79842  -214.59542     0.44239     0.98117     0.56571
  Kinetic  2008.49531  2015.03245  2054.67722     5.64244    10.18762     5.90400
  Fock        0.00000     0.00000     0.00000     0.00000     0.00000     0.00000
  -------------------------------------------------------------------------------------
  Total       0.13677     0.14969    -1.82873     0.00981    -0.17785    -0.10569
  in kB       0.09166     0.10032    -1.22559     0.00658    -0.11919    -0.07083
  external pressure =       -0.34 kB  Pullay stress =        0.00 kB


 VOLUME and BASIS-vectors are now :
 -----------------------------------------------------------------------------
  energy-cutoff  :      280.00
  volume of cell :     2390.66
      direct lattice vectors                 reciprocal lattice vectors
     8.306057820  4.821162559  0.000000000     0.060046179  0.103969315  0.000000000
    -8.285164189  4.784993056  0.000000000    -0.060500065  0.104231506  0.000000000
     0.000000000  0.000000000 30.000000000     0.000000000  0.000000000  0.033333333

  length of vectors
     9.603864062  9.567659284 30.000000000     0.120063158  0.120517487  0.033333333


 FORCES acting on ions
    electron-ion (+dipol)            ewald-force                    non-local-force                 convergence-correction
 -----------------------------------------------------------------------------------------------
   -.131E+02 -.229E+02 -.131E+02   0.139E+02 0.242E+02 0.128E+02   -.765E+00 -.133E+01 0.284E+00   -.265E-02 -.712E-02 0.103E-01
   0.128E+02 0.204E+02 0.153E+02   -.139E+02 -.216E+02 -.151E+02   0.103E+01 0.118E+01 -.237E+00   -.179E-02 0.800E-02 -.118E-01
   0.114E+02 0.217E+02 0.154E+02   -.119E+02 -.231E+02 -.151E+02   0.502E+00 0.148E+01 -.235E+00   0.525E-02 0.839E-02 -.115E-01
   -.582E+01 0.257E+01 0.189E+01   0.559E+01 -.248E+01 -.191E+01   0.247E+00 -.101E+00 0.233E-01   0.129E-01 0.810E-03 0.411E-03
   0.601E+01 -.434E+01 0.193E+01   -.580E+01 0.417E+01 -.195E+01   -.216E+00 0.165E+00 0.230E-01   0.265E-02 0.105E-01 0.132E-02
   0.567E+01 0.119E+02 0.353E+01   -.558E+01 -.117E+02 -.352E+01   -.108E+00 -.192E+00 -.125E-01   -.173E-02 0.103E-01 -.107E-03
   -.143E+02 -.299E+02 -.230E+02   0.146E+02 0.307E+02 0.228E+02   -.324E+00 -.827E+00 0.217E+00   -.630E-02 -.149E-01 0.111E-02
   -.186E+02 -.268E+02 -.232E+02   0.192E+02 0.276E+02 0.230E+02   -.569E+00 -.710E+00 0.224E+00   -.943E-02 -.898E-02 0.171E-02
   0.173E+02 0.298E+02 0.191E+02   -.177E+02 -.304E+02 -.190E+02   0.380E+00 0.649E+00 -.169E+00   0.612E-02 -.282E-03 -.242E-02
   -.849E+01 -.149E+02 0.607E+03   0.916E+01 0.161E+02 -.610E+03   -.666E+00 -.121E+01 0.320E+01   0.662E-02 0.355E-02 -.734E-03
   -.106E+02 -.214E+02 -.606E+03   0.109E+02 0.222E+02 0.610E+03   -.274E+00 -.825E+00 -.366E+01   -.631E-02 0.290E-02 -.671E-02
   -.677E+01 -.680E+01 0.612E+03   0.726E+01 0.811E+01 -.616E+03   -.469E+00 -.131E+01 0.350E+01   -.155E-01 0.171E-02 0.333E-02
   -.129E+02 -.200E+02 -.606E+03   0.134E+02 0.206E+02 0.610E+03   -.575E+00 -.642E+00 -.367E+01   0.830E-02 0.727E-03 -.392E-02
   -.287E+01 -.964E+01 0.614E+03   0.378E+01 0.107E+02 -.618E+03   -.912E+00 -.101E+01 0.349E+01   0.373E-02 -.145E-01 0.848E-02
   -.111E+02 -.186E+02 -.634E+03   0.113E+02 0.190E+02 0.638E+03   -.203E+00 -.348E+00 -.402E+01   -.598E-02 -.111E-01 -.880E-02
   -.567E+01 -.128E+02 0.489E+03   0.543E+01 0.131E+02 -.494E+03   0.243E+00 -.268E+00 0.487E+01   -.122E-01 -.838E-02 -.391E-02
   0.742E+01 0.567E+01 -.497E+03   -.730E+01 -.507E+01 0.502E+03   -.118E+00 -.580E+00 -.505E+01   0.602E-03 -.906E-02 0.948E-02
   -.803E+01 -.111E+02 0.488E+03   0.840E+01 0.110E+02 -.493E+03   -.363E+00 0.836E-01 0.487E+01   -.467E-03 -.101E-01 -.298E-02
   0.378E+01 0.663E+01 -.481E+03   -.366E+01 -.640E+01 0.486E+03   -.114E+00 -.211E+00 -.457E+01   -.100E-01 -.110E-01 0.534E-02
   -.636E+01 -.107E+02 0.506E+03   0.618E+01 0.104E+02 -.511E+03   0.180E+00 0.296E+00 0.524E+01   -.198E-02 -.651E-02 -.487E-02
   0.143E+01 0.947E+01 -.497E+03   -.967E+00 -.908E+01 0.502E+03   -.451E+00 -.389E+00 -.505E+01   -.422E-02 -.362E-02 0.640E-02
   0.173E+02 0.179E+02 0.610E+03   -.178E+02 -.185E+02 -.614E+03   0.489E+00 0.658E+00 0.365E+01   0.310E-02 0.208E-02 -.600E-02
   0.744E+01 0.127E+02 -.621E+03   -.814E+01 -.139E+02 0.624E+03   0.693E+00 0.114E+01 -.347E+01   0.808E-02 0.546E-02 0.659E-02
   0.113E+02 0.203E+02 0.587E+03   -.119E+02 -.213E+02 -.590E+03   0.592E+00 0.102E+01 0.322E+01   0.606E-02 0.181E-01 0.586E-02
   0.977E+01 0.115E+02 -.589E+03   -.108E+02 -.132E+02 0.592E+03   0.103E+01 0.159E+01 -.311E+01   -.280E-02 0.226E-01 -.254E-02
   0.718E+01 0.239E+02 0.610E+03   -.751E+01 -.246E+02 -.614E+03   0.329E+00 0.754E+00 0.363E+01   0.453E-02 0.407E-02 -.170E-02
   0.539E+01 0.148E+02 -.591E+03   -.624E+01 -.165E+02 0.594E+03   0.827E+00 0.167E+01 -.311E+01   0.172E-01 0.115E-01 -.793E-02
 -----------------------------------------------------------------------------------------------
   -.423E+00 -.731E+00 -.634E-01   -.950E-13 0.391E-13 0.114E-12   0.423E+00 0.732E+00 0.817E-01   0.375E-02 0.515E-02 -.156E-01
 
 
 POSITION                                       TOTAL-FORCE (eV/Angst)
 -----------------------------------------------------------------------------------
     -0.12594      2.96988      0.05034        -0.010955     -0.020234      0.032427
      2.92412      5.05495     -0.05548         0.004346      0.005156     -0.028944
      0.15219      6.65495     -0.05599        -0.000116      0.004002     -0.031835
     -0.04514      0.02329     -0.00576         0.024866     -0.011353      0.005710
      5.59515      6.38390     -0.00579        -0.001945      0.002788      0.004934
     -5.49362      3.25840     -0.01017        -0.018702      0.015316      0.001229
      2.62341      1.31451      0.07047        -0.005066      0.010896      0.021835
     -2.93630      4.52378      0.07097         0.008291     -0.000703      0.023686
      5.70416      3.50122     -0.06178        -0.000348     -0.003047     -0.019995
     -0.89838      1.63123     28.37577         0.007771      0.008202      0.021301
      0.88717      1.61632      1.65543        -0.003958     -0.017691      0.021739
     -3.69417      3.14891     28.35522         0.002028      0.008960      0.006031
     -1.80557      3.17055      1.65497        -0.013453     -0.014256      0.021538
     -6.47264      4.75671     28.35047         0.007689      0.015247     -0.007586
     -4.63304      4.73413      1.74312        -0.001556      0.003717      0.016531
      1.84222      3.21027     28.71675        -0.011904     -0.000980      0.009843
      3.68597      3.21986      1.30905         0.001459      0.012687     -0.005318
     -0.90350      4.79518     28.71785         0.003601     -0.011531      0.012582
      0.93880      4.81583      1.25993         0.000476      0.001081     -0.019589
     -3.66869      6.40242     28.66902        -0.000755     -0.002781      0.005299
     -1.81673      6.39735      1.30958         0.010025      0.005834     -0.003325
      4.60571      4.84856     28.33288         0.009825      0.002719     -0.023365
      6.48452      4.85282      1.66622        -0.001678     -0.008467     -0.003917
      1.85132      6.39810     28.40387         0.007818      0.018725     -0.028362
      3.69478      6.39517      1.57322        -0.015216     -0.009443     -0.010495
     -0.86588      8.00800     28.33254         0.000549      0.005887     -0.024814
      0.92683      7.99158      1.57731        -0.003091     -0.020729      0.002860
 -----------------------------------------------------------------------------------
    total drift:                                0.003730      0.005817      0.002788


--------------------------------------------------------------------------------------------------------



  FREE ENERGIE OF THE ION-ELECTRON SYSTEM (eV)
  ---------------------------------------------------
  free  energy   TOTEN  =      -192.33667113 eV

  energy  without entropy=     -192.20350454  energy(sigma->0) =     -192.27008783
 
 d Force = 0.2963708E-03[ 0.235E-03, 0.358E-03]  d Energy = 0.1748260E-03 0.122E-03
 d Force = 0.4393102E+00[ 0.439E+00, 0.439E+00]  d Ewald  =-0.6855782E+01 0.730E+01


--------------------------------------------------------------------------------------------------------


    POTLOK:  cpu time    0.0341: real time    0.0342


--------------------------------------------------------------------------------------------------------


 Quasi-Newton relaxation of ions (Broydens 2nd method)
  g(Force)  = 0.691E-03   g(Stress)= 0.738E-04

 retain information from N=  1 steps
 eigenvalues of (default step * inverse Hessian matrix)
  average eigenvalue of G=   0.1752
 eigenvalue spectrum of G is  0.1752


--------------------------------------------------------------------------------------------------------


  
 reached required accuracy - stopping structural energy minimisation
     LOOP+:  cpu time  131.4723: real time  131.8031
    4ORBIT:  cpu time    0.0000: real time    0.0000

 total amount of memory used by VASP on root node   650782. kBytes
========================================================================

   base      :      30000. kBytes
   nonl-proj :     559647. kBytes
   fftplans  :       2414. kBytes
   grid      :      12150. kBytes
   one-center:        419. kBytes
   wavefun   :      46152. kBytes
 
  
  
 General timing and accounting informations for this job:
 ========================================================
  
                  Total CPU time used (sec):     6437.289
                            User time (sec):     6416.358
                          System time (sec):       20.931
                         Elapsed time (sec):     6454.565
  
                   Maximum memory used (kb):      751496.
                   Average memory used (kb):           0.
  
                          Minor page faults:       859578
                          Major page faults:            5
                 Voluntary context switches:         4980
